
     Program PWSCF v.7.1 starts on 11Nov2022 at 15:32:51 

     This program is part of the open-source Quantum ESPRESSO suite
     for quantum simulation of materials; please cite
         "P. Giannozzi et al., J. Phys.:Condens. Matter 21 395502 (2009);
         "P. Giannozzi et al., J. Phys.:Condens. Matter 29 465901 (2017);
         "P. Giannozzi et al., J. Chem. Phys. 152 154105 (2020);
          URL http://www.quantum-espresso.org", 
     in publications or presentations arising from this work. More details at
     http://www.quantum-espresso.org/quote

     Parallel version (MPI), running on    16 processors

     MPI processes distributed on     1 nodes
     375499 MiB available memory on the printing compute node when the environment starts
 
     Waiting for input...
     Reading input from standard input

     Current dimensions of program PWSCF are:
     Max number of different atomic species (ntypx) = 10
     Max number of k-points (npk) =  40000
     Max angular momentum in pseudopotentials (lmaxx) =  4
     file Pt.rel-pbe-n-rrkjus_psl.0.1.UPF: wavefunction(s)  5D renormalized

     Fixed quantization axis for GGA:     0.000000    0.000000    1.000000
 
     K-points division:     npool     =       4
     R & G space division:  proc/nbgrp/npool/nimage =       4
     Subspace diagonalization in iterative solution of the eigenvalue problem:
     a serial algorithm will be used

 
     Parallelization info
     --------------------
     sticks:   dense  smooth     PW     G-vecs:    dense   smooth      PW
     Min         412     136     43                17536     3292     565
     Max         413     137     45                17541     3295     566
     Sum        1649     545    177                70151    13173    2261
 
     Using Slab Decomposition
 


     bravais-lattice index     =            6
     lattice parameter (alat)  =       5.1554  a.u.
     unit-cell volume          =     189.8042 (a.u.)^3
     number of atoms/cell      =            2
     number of atomic types    =            2
     number of electrons       =        26.00
     number of Kohn-Sham states=           98
     kinetic-energy cutoff     =      64.0000  Ry
     charge density cutoff     =     782.0000  Ry
     Exchange-correlation= PBE
                           (   1   4   3   4   0   0   0)
     Noncollinear calculation with spin-orbit


     celldm(1)=   5.155443  celldm(2)=   0.000000  celldm(3)=   1.385185
     celldm(4)=   0.000000  celldm(5)=   0.000000  celldm(6)=   0.000000

     crystal axes: (cart. coord. in units of alat)
               a(1) = (   1.000000   0.000000   0.000000 )  
               a(2) = (   0.000000   1.000000   0.000000 )  
               a(3) = (   0.000000   0.000000   1.385185 )  

     reciprocal axes: (cart. coord. in units 2 pi/alat)
               b(1) = (  1.000000  0.000000  0.000000 )  
               b(2) = (  0.000000  1.000000  0.000000 )  
               b(3) = (  0.000000  0.000000  0.721925 )  


     PseudoPot. # 1 for Fe read from file:
     /home4/koretsune/PWSCF/pseudo_psl031/Fe.rel-pbe-spn-rrkjus_psl.0.2.1.UPF
     MD5 check sum: e4688d448a4fb973b820eb5309e921a0
     Pseudo is Ultrasoft + core correction, Zval = 16.0
     Generated using "atomic" code by A. Dal Corso  v.5.0.99 svn rev. 10869
     Using radial grid of 1191 points, 10 beta functions with: 
                l(1) =   0
                l(2) =   0
                l(3) =   1
                l(4) =   1
                l(5) =   1
                l(6) =   1
                l(7) =   2
                l(8) =   2
                l(9) =   2
               l(10) =   2
     Q(r) pseudized with 0 coefficients 


     PseudoPot. # 2 for Pt read from file:
     /home4/koretsune/PWSCF/pseudo_psl031/Pt.rel-pbe-n-rrkjus_psl.0.1.UPF
     MD5 check sum: 75c9b7c8bba3558fb64ef7de01c2f511
     Pseudo is Ultrasoft + core correction, Zval = 10.0
     Generated using "atomic" code by A. Dal Corso  v.5.0.99 svn rev. 10869
     Using radial grid of 1277 points, 10 beta functions with: 
                l(1) =   0
                l(2) =   0
                l(3) =   1
                l(4) =   1
                l(5) =   1
                l(6) =   1
                l(7) =   2
                l(8) =   2
                l(9) =   2
               l(10) =   2
     Q(r) pseudized with 0 coefficients 


     atomic species   valence    mass     pseudopotential
        Fe            16.00    55.84500     Fe( 1.00)
        Pt            10.00   195.08400     Pt( 1.00)

     16 Sym. Ops., with inversion, found


                                    s                        frac. trans.

      isym =  1     identity                                     

 Time Reversal            0
 cryst.   s( 1) = (     1          0          0      )
                  (     0          1          0      )
                  (     0          0          1      )

 cart.    s( 1) = (  1.0000000  0.0000000  0.0000000 )
                  (  0.0000000  1.0000000  0.0000000 )
                  (  0.0000000  0.0000000  1.0000000 )


      isym =  2     180 deg rotation - cart. axis [0,0,1]        

 Time Reversal            0
 cryst.   s( 2) = (    -1          0          0      )
                  (     0         -1          0      )
                  (     0          0          1      )

 cart.    s( 2) = ( -1.0000000  0.0000000  0.0000000 )
                  (  0.0000000 -1.0000000  0.0000000 )
                  (  0.0000000  0.0000000  1.0000000 )


      isym =  3     180 deg rotation - cart. axis [0,1,0]        

 Time Reversal            1
 cryst.   s( 3) = (    -1          0          0      )
                  (     0          1          0      )
                  (     0          0         -1      )

 cart.    s( 3) = ( -1.0000000  0.0000000  0.0000000 )
                  (  0.0000000  1.0000000  0.0000000 )
                  (  0.0000000  0.0000000 -1.0000000 )


      isym =  4     180 deg rotation - cart. axis [1,0,0]        

 Time Reversal            1
 cryst.   s( 4) = (     1          0          0      )
                  (     0         -1          0      )
                  (     0          0         -1      )

 cart.    s( 4) = (  1.0000000  0.0000000  0.0000000 )
                  (  0.0000000 -1.0000000  0.0000000 )
                  (  0.0000000  0.0000000 -1.0000000 )


      isym =  5     180 deg rotation - cart. axis [1,1,0]        

 Time Reversal            1
 cryst.   s( 5) = (     0          1          0      )
                  (     1          0          0      )
                  (     0          0         -1      )

 cart.    s( 5) = (  0.0000000  1.0000000  0.0000000 )
                  (  1.0000000  0.0000000  0.0000000 )
                  (  0.0000000  0.0000000 -1.0000000 )


      isym =  6     180 deg rotation - cart. axis [1,-1,0]       

 Time Reversal            1
 cryst.   s( 6) = (     0         -1          0      )
                  (    -1          0          0      )
                  (     0          0         -1      )

 cart.    s( 6) = (  0.0000000 -1.0000000  0.0000000 )
                  ( -1.0000000  0.0000000  0.0000000 )
                  (  0.0000000  0.0000000 -1.0000000 )


      isym =  7      90 deg rotation - cart. axis [0,0,-1]       

 Time Reversal            0
 cryst.   s( 7) = (     0         -1          0      )
                  (     1          0          0      )
                  (     0          0          1      )

 cart.    s( 7) = (  0.0000000  1.0000000  0.0000000 )
                  ( -1.0000000  0.0000000  0.0000000 )
                  (  0.0000000  0.0000000  1.0000000 )


      isym =  8      90 deg rotation - cart. axis [0,0,1]        

 Time Reversal            0
 cryst.   s( 8) = (     0          1          0      )
                  (    -1          0          0      )
                  (     0          0          1      )

 cart.    s( 8) = (  0.0000000 -1.0000000  0.0000000 )
                  (  1.0000000  0.0000000  0.0000000 )
                  (  0.0000000  0.0000000  1.0000000 )


      isym =  9     inversion                                    

 Time Reversal            0
 cryst.   s( 9) = (    -1          0          0      )
                  (     0         -1          0      )
                  (     0          0         -1      )

 cart.    s( 9) = ( -1.0000000  0.0000000  0.0000000 )
                  (  0.0000000 -1.0000000  0.0000000 )
                  (  0.0000000  0.0000000 -1.0000000 )


      isym = 10     inv. 180 deg rotation - cart. axis [0,0,1]   

 Time Reversal            0
 cryst.   s(10) = (     1          0          0      )
                  (     0          1          0      )
                  (     0          0         -1      )

 cart.    s(10) = (  1.0000000  0.0000000  0.0000000 )
                  (  0.0000000  1.0000000  0.0000000 )
                  (  0.0000000  0.0000000 -1.0000000 )


      isym = 11     inv. 180 deg rotation - cart. axis [0,1,0]   

 Time Reversal            1
 cryst.   s(11) = (     1          0          0      )
                  (     0         -1          0      )
                  (     0          0          1      )

 cart.    s(11) = (  1.0000000  0.0000000  0.0000000 )
                  (  0.0000000 -1.0000000  0.0000000 )
                  (  0.0000000  0.0000000  1.0000000 )


      isym = 12     inv. 180 deg rotation - cart. axis [1,0,0]   

 Time Reversal            1
 cryst.   s(12) = (    -1          0          0      )
                  (     0          1          0      )
                  (     0          0          1      )

 cart.    s(12) = ( -1.0000000  0.0000000  0.0000000 )
                  (  0.0000000  1.0000000  0.0000000 )
                  (  0.0000000  0.0000000  1.0000000 )


      isym = 13     inv. 180 deg rotation - cart. axis [1,1,0]   

 Time Reversal            1
 cryst.   s(13) = (     0         -1          0      )
                  (    -1          0          0      )
                  (     0          0          1      )

 cart.    s(13) = (  0.0000000 -1.0000000  0.0000000 )
                  ( -1.0000000  0.0000000  0.0000000 )
                  (  0.0000000  0.0000000  1.0000000 )


      isym = 14     inv. 180 deg rotation - cart. axis [1,-1,0]  

 Time Reversal            1
 cryst.   s(14) = (     0          1          0      )
                  (     1          0          0      )
                  (     0          0          1      )

 cart.    s(14) = (  0.0000000  1.0000000  0.0000000 )
                  (  1.0000000  0.0000000  0.0000000 )
                  (  0.0000000  0.0000000  1.0000000 )


      isym = 15     inv.  90 deg rotation - cart. axis [0,0,-1]  

 Time Reversal            0
 cryst.   s(15) = (     0          1          0      )
                  (    -1          0          0      )
                  (     0          0         -1      )

 cart.    s(15) = (  0.0000000 -1.0000000  0.0000000 )
                  (  1.0000000  0.0000000  0.0000000 )
                  (  0.0000000  0.0000000 -1.0000000 )


      isym = 16     inv.  90 deg rotation - cart. axis [0,0,1]   

 Time Reversal            0
 cryst.   s(16) = (     0         -1          0      )
                  (     1          0          0      )
                  (     0          0         -1      )

 cart.    s(16) = (  0.0000000  1.0000000  0.0000000 )
                  ( -1.0000000  0.0000000  0.0000000 )
                  (  0.0000000  0.0000000 -1.0000000 )


     the magnetic double point group is D_4h(4/mmm) [C_4h (4/m) ]
     using the double point group C_4h (4/m) 
     there are 16 classes and  8 irreducible representations
     the character table:

       E     -E    C4    -C4   C2    -C2   C4^3  -C4^3 i     -i    S4^3  -S4^3
                                                                              
G_5+   1.00 -1.00  0.71 -0.71  0.00  0.00  0.71 -0.71  1.00 -1.00  0.71 -0.71
G_6+   1.00 -1.00  0.71 -0.71  0.00  0.00  0.71 -0.71  1.00 -1.00  0.71 -0.71
G_7+   1.00 -1.00 -0.71  0.71  0.00  0.00 -0.71  0.71  1.00 -1.00 -0.71  0.71
G_8+   1.00 -1.00 -0.71  0.71  0.00  0.00 -0.71  0.71  1.00 -1.00 -0.71  0.71
G_5-   1.00 -1.00  0.71 -0.71  0.00  0.00  0.71 -0.71 -1.00  1.00 -0.71  0.71
G_6-   1.00 -1.00  0.71 -0.71  0.00  0.00  0.71 -0.71 -1.00  1.00 -0.71  0.71
G_7-   1.00 -1.00 -0.71  0.71  0.00  0.00 -0.71  0.71 -1.00  1.00  0.71 -0.71
G_8-   1.00 -1.00 -0.71  0.71  0.00  0.00 -0.71  0.71 -1.00  1.00  0.71 -0.71

       s_h   -s_h  S4    -S4  
                              
G_5+   0.00  0.00  0.71 -0.71
G_6+   0.00  0.00  0.71 -0.71
G_7+   0.00  0.00 -0.71  0.71
G_8+   0.00  0.00 -0.71  0.71
G_5-   0.00  0.00 -0.71  0.71
G_6-   0.00  0.00 -0.71  0.71
G_7-   0.00  0.00  0.71 -0.71
G_8-   0.00  0.00  0.71 -0.71

     imaginary part

       E     -E    C4    -C4   C2    -C2   C4^3  -C4^3 i     -i    S4^3  -S4^3
                                                                              
G_5+   0.00  0.00  0.71 -0.71  1.00 -1.00 -0.71  0.71  0.00  0.00  0.71 -0.71
G_6+   0.00  0.00 -0.71  0.71 -1.00  1.00  0.71 -0.71  0.00  0.00 -0.71  0.71
G_7+   0.00  0.00 -0.71  0.71  1.00 -1.00  0.71 -0.71  0.00  0.00 -0.71  0.71
G_8+   0.00  0.00  0.71 -0.71 -1.00  1.00 -0.71  0.71  0.00  0.00  0.71 -0.71
G_5-   0.00  0.00  0.71 -0.71  1.00 -1.00 -0.71  0.71  0.00  0.00 -0.71  0.71
G_6-   0.00  0.00 -0.71  0.71 -1.00  1.00  0.71 -0.71  0.00  0.00  0.71 -0.71
G_7-   0.00  0.00 -0.71  0.71  1.00 -1.00  0.71 -0.71  0.00  0.00  0.71 -0.71
G_8-   0.00  0.00  0.71 -0.71 -1.00  1.00 -0.71  0.71  0.00  0.00 -0.71  0.71

       s_h   -s_h  S4    -S4  
                              
G_5+   1.00 -1.00 -0.71  0.71
G_6+  -1.00  1.00  0.71 -0.71
G_7+   1.00 -1.00  0.71 -0.71
G_8+  -1.00  1.00 -0.71  0.71
G_5-  -1.00  1.00  0.71 -0.71
G_6-   1.00 -1.00 -0.71  0.71
G_7-  -1.00  1.00 -0.71  0.71
G_8-   1.00 -1.00  0.71 -0.71

     the symmetry operations in each class and the name of the first element:

     E             1
          identity                                               
     -E           -1
          identity E                                             
     C4            4
           90 deg rotation - cart. axis [0,0,1]                  
     -C4          -4
           90 deg rotation - cart. axis [0,0,1] E                
     C2            2
          180 deg rotation - cart. axis [0,0,1]                  
     -C2          -2
          180 deg rotation - cart. axis [0,0,1] E                
     C4^3          3
           90 deg rotation - cart. axis [0,0,-1]                 
     -C4^3        -3
           90 deg rotation - cart. axis [0,0,-1] E               
     i             5
          inversion                                              
     -i           -5
          inversion E                                            
     S4^3          8
          inv.  90 deg rotation - cart. axis [0,0,1]             
     -S4^3        -8
          inv.  90 deg rotation - cart. axis [0,0,1] E           
     s_h           6
          inv. 180 deg rotation - cart. axis [0,0,1]             
     -s_h         -6
          inv. 180 deg rotation - cart. axis [0,0,1] E           
     S4            7
          inv.  90 deg rotation - cart. axis [0,0,-1]            
     -S4          -7
          inv.  90 deg rotation - cart. axis [0,0,-1] E          

   Cartesian axes

     site n.     atom                  positions (alat units)
         1           Fe  tau(   1) = (   0.0000000   0.0000000   0.0000000  )
         2           Pt  tau(   2) = (   0.5000000   0.5000000   0.6925927  )

   Crystallographic axes

     site n.     atom                  positions (cryst. coord.)
         1           Fe  tau(   1) = (  0.0000000  0.0000000  0.0000000  )
         2           Pt  tau(   2) = (  0.5000000  0.5000000  0.5000000  )

     number of k points=    60  Methfessel-Paxton smearing, width (Ry)=  0.0100
                       cart. coord. in units 2pi/alat
        k(    1) = (   0.0000000   0.0000000   0.0000000), wk =   0.0020576
        k(    2) = (   0.0000000   0.0000000   0.1203208), wk =   0.0041152
        k(    3) = (   0.0000000   0.0000000   0.2406417), wk =   0.0041152
        k(    4) = (   0.0000000   0.0000000  -0.3609625), wk =   0.0020576
        k(    5) = (   0.0000000   0.1111111   0.0000000), wk =   0.0082305
        k(    6) = (   0.0000000   0.1111111   0.1203208), wk =   0.0164609
        k(    7) = (   0.0000000   0.1111111   0.2406417), wk =   0.0164609
        k(    8) = (   0.0000000   0.1111111  -0.3609625), wk =   0.0082305
        k(    9) = (   0.0000000   0.2222222   0.0000000), wk =   0.0082305
        k(   10) = (   0.0000000   0.2222222   0.1203208), wk =   0.0164609
        k(   11) = (   0.0000000   0.2222222   0.2406417), wk =   0.0164609
        k(   12) = (   0.0000000   0.2222222  -0.3609625), wk =   0.0082305
        k(   13) = (   0.0000000   0.3333333   0.0000000), wk =   0.0082305
        k(   14) = (   0.0000000   0.3333333   0.1203208), wk =   0.0164609
        k(   15) = (   0.0000000   0.3333333   0.2406417), wk =   0.0164609
        k(   16) = (   0.0000000   0.3333333  -0.3609625), wk =   0.0082305
        k(   17) = (   0.0000000   0.4444444   0.0000000), wk =   0.0082305
        k(   18) = (   0.0000000   0.4444444   0.1203208), wk =   0.0164609
        k(   19) = (   0.0000000   0.4444444   0.2406417), wk =   0.0164609
        k(   20) = (   0.0000000   0.4444444  -0.3609625), wk =   0.0082305
        k(   21) = (   0.1111111   0.1111111   0.0000000), wk =   0.0082305
        k(   22) = (   0.1111111   0.1111111   0.1203208), wk =   0.0164609
        k(   23) = (   0.1111111   0.1111111   0.2406417), wk =   0.0164609
        k(   24) = (   0.1111111   0.1111111  -0.3609625), wk =   0.0082305
        k(   25) = (   0.1111111   0.2222222   0.0000000), wk =   0.0164609
        k(   26) = (   0.1111111   0.2222222   0.1203208), wk =   0.0329218
        k(   27) = (   0.1111111   0.2222222   0.2406417), wk =   0.0329218
        k(   28) = (   0.1111111   0.2222222  -0.3609625), wk =   0.0164609
        k(   29) = (   0.1111111   0.3333333   0.0000000), wk =   0.0164609
        k(   30) = (   0.1111111   0.3333333   0.1203208), wk =   0.0329218
        k(   31) = (   0.1111111   0.3333333   0.2406417), wk =   0.0329218
        k(   32) = (   0.1111111   0.3333333  -0.3609625), wk =   0.0164609
        k(   33) = (   0.1111111   0.4444444   0.0000000), wk =   0.0164609
        k(   34) = (   0.1111111   0.4444444   0.1203208), wk =   0.0329218
        k(   35) = (   0.1111111   0.4444444   0.2406417), wk =   0.0329218
        k(   36) = (   0.1111111   0.4444444  -0.3609625), wk =   0.0164609
        k(   37) = (   0.2222222   0.2222222   0.0000000), wk =   0.0082305
        k(   38) = (   0.2222222   0.2222222   0.1203208), wk =   0.0164609
        k(   39) = (   0.2222222   0.2222222   0.2406417), wk =   0.0164609
        k(   40) = (   0.2222222   0.2222222  -0.3609625), wk =   0.0082305
        k(   41) = (   0.2222222   0.3333333   0.0000000), wk =   0.0164609
        k(   42) = (   0.2222222   0.3333333   0.1203208), wk =   0.0329218
        k(   43) = (   0.2222222   0.3333333   0.2406417), wk =   0.0329218
        k(   44) = (   0.2222222   0.3333333  -0.3609625), wk =   0.0164609
        k(   45) = (   0.2222222   0.4444444   0.0000000), wk =   0.0164609
        k(   46) = (   0.2222222   0.4444444   0.1203208), wk =   0.0329218
        k(   47) = (   0.2222222   0.4444444   0.2406417), wk =   0.0329218
        k(   48) = (   0.2222222   0.4444444  -0.3609625), wk =   0.0164609
        k(   49) = (   0.3333333   0.3333333   0.0000000), wk =   0.0082305
        k(   50) = (   0.3333333   0.3333333   0.1203208), wk =   0.0164609
        k(   51) = (   0.3333333   0.3333333   0.2406417), wk =   0.0164609
        k(   52) = (   0.3333333   0.3333333  -0.3609625), wk =   0.0082305
        k(   53) = (   0.3333333   0.4444444   0.0000000), wk =   0.0164609
        k(   54) = (   0.3333333   0.4444444   0.1203208), wk =   0.0329218
        k(   55) = (   0.3333333   0.4444444   0.2406417), wk =   0.0329218
        k(   56) = (   0.3333333   0.4444444  -0.3609625), wk =   0.0164609
        k(   57) = (   0.4444444   0.4444444   0.0000000), wk =   0.0082305
        k(   58) = (   0.4444444   0.4444444   0.1203208), wk =   0.0164609
        k(   59) = (   0.4444444   0.4444444   0.2406417), wk =   0.0164609
        k(   60) = (   0.4444444   0.4444444  -0.3609625), wk =   0.0082305

                       cryst. coord.
        k(    1) = (   0.0000000   0.0000000   0.0000000), wk =   0.0020576
        k(    2) = (   0.0000000   0.0000000   0.1666667), wk =   0.0041152
        k(    3) = (   0.0000000   0.0000000   0.3333333), wk =   0.0041152
        k(    4) = (   0.0000000   0.0000000  -0.5000000), wk =   0.0020576
        k(    5) = (   0.0000000   0.1111111   0.0000000), wk =   0.0082305
        k(    6) = (   0.0000000   0.1111111   0.1666667), wk =   0.0164609
        k(    7) = (   0.0000000   0.1111111   0.3333333), wk =   0.0164609
        k(    8) = (   0.0000000   0.1111111  -0.5000000), wk =   0.0082305
        k(    9) = (   0.0000000   0.2222222   0.0000000), wk =   0.0082305
        k(   10) = (   0.0000000   0.2222222   0.1666667), wk =   0.0164609
        k(   11) = (   0.0000000   0.2222222   0.3333333), wk =   0.0164609
        k(   12) = (   0.0000000   0.2222222  -0.5000000), wk =   0.0082305
        k(   13) = (   0.0000000   0.3333333   0.0000000), wk =   0.0082305
        k(   14) = (   0.0000000   0.3333333   0.1666667), wk =   0.0164609
        k(   15) = (   0.0000000   0.3333333   0.3333333), wk =   0.0164609
        k(   16) = (   0.0000000   0.3333333  -0.5000000), wk =   0.0082305
        k(   17) = (   0.0000000   0.4444444   0.0000000), wk =   0.0082305
        k(   18) = (   0.0000000   0.4444444   0.1666667), wk =   0.0164609
        k(   19) = (   0.0000000   0.4444444   0.3333333), wk =   0.0164609
        k(   20) = (   0.0000000   0.4444444  -0.5000000), wk =   0.0082305
        k(   21) = (   0.1111111   0.1111111   0.0000000), wk =   0.0082305
        k(   22) = (   0.1111111   0.1111111   0.1666667), wk =   0.0164609
        k(   23) = (   0.1111111   0.1111111   0.3333333), wk =   0.0164609
        k(   24) = (   0.1111111   0.1111111  -0.5000000), wk =   0.0082305
        k(   25) = (   0.1111111   0.2222222   0.0000000), wk =   0.0164609
        k(   26) = (   0.1111111   0.2222222   0.1666667), wk =   0.0329218
        k(   27) = (   0.1111111   0.2222222   0.3333333), wk =   0.0329218
        k(   28) = (   0.1111111   0.2222222  -0.5000000), wk =   0.0164609
        k(   29) = (   0.1111111   0.3333333   0.0000000), wk =   0.0164609
        k(   30) = (   0.1111111   0.3333333   0.1666667), wk =   0.0329218
        k(   31) = (   0.1111111   0.3333333   0.3333333), wk =   0.0329218
        k(   32) = (   0.1111111   0.3333333  -0.5000000), wk =   0.0164609
        k(   33) = (   0.1111111   0.4444444   0.0000000), wk =   0.0164609
        k(   34) = (   0.1111111   0.4444444   0.1666667), wk =   0.0329218
        k(   35) = (   0.1111111   0.4444444   0.3333333), wk =   0.0329218
        k(   36) = (   0.1111111   0.4444444  -0.5000000), wk =   0.0164609
        k(   37) = (   0.2222222   0.2222222   0.0000000), wk =   0.0082305
        k(   38) = (   0.2222222   0.2222222   0.1666667), wk =   0.0164609
        k(   39) = (   0.2222222   0.2222222   0.3333333), wk =   0.0164609
        k(   40) = (   0.2222222   0.2222222  -0.5000000), wk =   0.0082305
        k(   41) = (   0.2222222   0.3333333   0.0000000), wk =   0.0164609
        k(   42) = (   0.2222222   0.3333333   0.1666667), wk =   0.0329218
        k(   43) = (   0.2222222   0.3333333   0.3333333), wk =   0.0329218
        k(   44) = (   0.2222222   0.3333333  -0.5000000), wk =   0.0164609
        k(   45) = (   0.2222222   0.4444444   0.0000000), wk =   0.0164609
        k(   46) = (   0.2222222   0.4444444   0.1666667), wk =   0.0329218
        k(   47) = (   0.2222222   0.4444444   0.3333333), wk =   0.0329218
        k(   48) = (   0.2222222   0.4444444  -0.5000000), wk =   0.0164609
        k(   49) = (   0.3333333   0.3333333   0.0000000), wk =   0.0082305
        k(   50) = (   0.3333333   0.3333333   0.1666667), wk =   0.0164609
        k(   51) = (   0.3333333   0.3333333   0.3333333), wk =   0.0164609
        k(   52) = (   0.3333333   0.3333333  -0.5000000), wk =   0.0082305
        k(   53) = (   0.3333333   0.4444444   0.0000000), wk =   0.0164609
        k(   54) = (   0.3333333   0.4444444   0.1666667), wk =   0.0329218
        k(   55) = (   0.3333333   0.4444444   0.3333333), wk =   0.0329218
        k(   56) = (   0.3333333   0.4444444  -0.5000000), wk =   0.0164609
        k(   57) = (   0.4444444   0.4444444   0.0000000), wk =   0.0082305
        k(   58) = (   0.4444444   0.4444444   0.1666667), wk =   0.0164609
        k(   59) = (   0.4444444   0.4444444   0.3333333), wk =   0.0164609
        k(   60) = (   0.4444444   0.4444444  -0.5000000), wk =   0.0082305

     Dense  grid:    70151 G-vectors     FFT dimensions: (  45,  45,  64)

     Smooth grid:    13173 G-vectors     FFT dimensions: (  27,  27,  40)

     Dynamical RAM for                 wfc:       1.23 MB

     Dynamical RAM for     wfc (w. buffer):      19.62 MB

     Dynamical RAM for           str. fact:       0.54 MB

     Dynamical RAM for           local pot:       0.00 MB

     Dynamical RAM for          nlocal pot:       0.43 MB

     Dynamical RAM for                qrad:      11.75 MB

     Dynamical RAM for          rho,v,vnew:       6.18 MB

     Dynamical RAM for           G-vectors:       1.03 MB

     Dynamical RAM for          h,s,v(r/c):       1.76 MB

     Dynamical RAM for          <psi|beta>:       0.20 MB

     Dynamical RAM for                 psi:       2.45 MB

     Dynamical RAM for                hpsi:       2.45 MB

     Dynamical RAM for                spsi:       2.45 MB

     Dynamical RAM for      wfcinit/wfcrot:       2.06 MB

     Dynamical RAM for           addusdens:      41.88 MB

     Estimated static dynamical RAM per process >      42.32 MB

     Estimated max dynamical RAM per process >      84.19 MB

     Estimated total dynamical RAM >       1.32 GB

     Check: negative core charge=   -0.000005
     Generating pointlists ...
     new r_m :   0.4083 (alat units)  2.1049 (a.u.) for type    1
     new r_m :   0.4083 (alat units)  2.1049 (a.u.) for type    2
     Message from routine read_rhog:
     some spin components not found
 
 -----------
Spin angles Theta, Phi (degree) =   0.0000  0.0000
 -----------

     The potential is recalculated from file :
     ./work/pwscf.save/charge-density

     Starting wfcs are   44 randomized atomic wfcs +   54 random wfcs

     Band Structure Calculation
     Davidson diagonalization with overlap

     Computing kpt #:     1  of    15 on this pool
     total cpu time spent up to now is        2.8 secs

     Computing kpt #:     2  of    15 on this pool
     total cpu time spent up to now is        4.4 secs

     Computing kpt #:     3  of    15 on this pool
     total cpu time spent up to now is        5.8 secs

     Computing kpt #:     4  of    15 on this pool
     total cpu time spent up to now is        7.4 secs

     Computing kpt #:     5  of    15 on this pool
     total cpu time spent up to now is        8.9 secs

     Computing kpt #:     6  of    15 on this pool
     total cpu time spent up to now is       10.4 secs

     Computing kpt #:     7  of    15 on this pool
     total cpu time spent up to now is       11.9 secs

     Computing kpt #:     8  of    15 on this pool
     total cpu time spent up to now is       13.5 secs

     Computing kpt #:     9  of    15 on this pool
     total cpu time spent up to now is       15.0 secs

     Computing kpt #:    10  of    15 on this pool
     total cpu time spent up to now is       16.6 secs

     Computing kpt #:    11  of    15 on this pool
     total cpu time spent up to now is       18.0 secs

     Computing kpt #:    12  of    15 on this pool
     total cpu time spent up to now is       19.4 secs

     Computing kpt #:    13  of    15 on this pool
     total cpu time spent up to now is       20.9 secs

     Computing kpt #:    14  of    15 on this pool
     total cpu time spent up to now is       22.2 secs

     Computing kpt #:    15  of    15 on this pool
     total cpu time spent up to now is       23.5 secs

     ethr =  3.85E-11,  avg # of iterations = 33.5

     total cpu time spent up to now is       23.5 secs

     End of band structure calculation

------
 eband, Ef (eV) =   -110.367337428844        17.0412108120015     
------


          k = 0.0000 0.0000 0.0000 (  1651 PWs)   bands (ev):

   -71.9654 -68.3811 -38.5328 -38.3285 -37.3694 -34.7694 -34.4123 -33.9047
     7.5006   7.6269  10.7030  10.8787  11.2486  11.2591  13.5056  13.7393
    13.9549  14.3195  14.8388  15.0624  15.2312  15.9970  16.3472  16.4095
    16.6070  16.9862  17.6214  18.5918  18.7390  18.8372  18.9654  19.1367
    26.2792  27.1340  28.4607  28.7182  29.2905  29.5946  34.9920  35.1879
    35.6557  36.3322  36.4094  36.9687  38.9944  39.0871  39.5887  39.6768
    39.9637  40.1393  43.8341  44.1273  45.6385  45.8419  46.2372  46.4439
    48.2109  48.3101  50.1462  50.5593  51.9613  52.1768  52.3381  52.6828
    52.7284  53.2437  53.9041  54.8595  56.5258  57.1164  57.5317  57.6335
    59.7460  59.8071  59.8720  59.9352  60.0217  60.2042  60.5018  60.6669
    64.7631  64.8453  67.4556  67.7691  68.0833  68.1274  68.1750  68.3492
    68.3493  68.3654  69.0431  69.5926  70.7182  71.1432  77.1439  77.3724
    77.7553  77.9836

     occupation numbers 
     1.0000   1.0000   1.0000   1.0000   1.0000   1.0000   1.0000   1.0000
     1.0000   1.0000   1.0000   1.0000   1.0000   1.0000   1.0000   1.0000
     1.0000   1.0000   1.0000   1.0000   1.0000   1.0000   1.0000   1.0000
     1.0000   0.8132  -0.0000  -0.0000  -0.0000  -0.0000  -0.0000  -0.0000
    -0.0000  -0.0000  -0.0000  -0.0000  -0.0000  -0.0000  -0.0000  -0.0000
    -0.0000  -0.0000  -0.0000  -0.0000  -0.0000  -0.0000  -0.0000  -0.0000
    -0.0000  -0.0000  -0.0000  -0.0000  -0.0000  -0.0000  -0.0000  -0.0000
    -0.0000  -0.0000  -0.0000  -0.0000  -0.0000  -0.0000  -0.0000  -0.0000
    -0.0000  -0.0000  -0.0000  -0.0000  -0.0000  -0.0000  -0.0000  -0.0000
    -0.0000  -0.0000  -0.0000  -0.0000  -0.0000  -0.0000  -0.0000  -0.0000
    -0.0000  -0.0000  -0.0000  -0.0000  -0.0000  -0.0000  -0.0000  -0.0000
    -0.0000  -0.0000  -0.0000  -0.0000  -0.0000  -0.0000  -0.0000  -0.0000
    -0.0000  -0.0000

          k = 0.0000 0.0000 0.1203 (  1662 PWs)   bands (ev):

   -71.9654 -68.3810 -38.5329 -38.3297 -37.3694 -34.7696 -34.4138 -33.9048
     7.8290   7.9508  10.8362  10.9678  11.3253  11.3542  13.6350  13.8412
    13.8758  14.3307  14.8907  15.1284  15.1353  15.9158  16.0192  16.2778
    16.5631  16.8139  17.2963  17.5059  18.0531  18.3598  18.5373  18.6846
    28.0591  28.6323  29.3696  29.5028  29.9696  30.3144  34.1666  34.4580
    36.2406  36.7833  37.1008  37.2995  38.1826  38.2780  38.6870  38.7805
    38.8996  39.1283  45.4045  45.6122  45.7502  46.0315  46.2454  46.2728
    48.3242  48.4377  49.2354  49.6550  51.6515  52.0556  52.3132  52.9116
    53.4769  54.2301  54.8003  55.3555  55.3878  55.4738  55.5327  55.5403
    55.7835  56.2243  60.4843  60.4919  60.5146  60.8174  64.4915  64.6327
    65.2833  65.3366  66.5341  67.0375  67.4935  68.0430  68.0996  68.2897
    69.6346  70.0124  70.1612  70.6887  73.2930  73.3180  77.3433  77.4389
    77.8860  77.9935

     occupation numbers 
     1.0000   1.0000   1.0000   1.0000   1.0000   1.0000   1.0000   1.0000
     1.0000   1.0000   1.0000   1.0000   1.0000   1.0000   1.0000   1.0000
     1.0000   1.0000   1.0000   1.0000   1.0000   1.0000   1.0000   1.0000
     1.0000   1.0198  -0.0117  -0.0000  -0.0000  -0.0000  -0.0000  -0.0000
    -0.0000  -0.0000  -0.0000  -0.0000  -0.0000  -0.0000  -0.0000  -0.0000
    -0.0000  -0.0000  -0.0000  -0.0000  -0.0000  -0.0000  -0.0000  -0.0000
    -0.0000  -0.0000  -0.0000  -0.0000  -0.0000  -0.0000  -0.0000  -0.0000
    -0.0000  -0.0000  -0.0000  -0.0000  -0.0000  -0.0000  -0.0000  -0.0000
    -0.0000  -0.0000  -0.0000  -0.0000  -0.0000  -0.0000  -0.0000  -0.0000
    -0.0000  -0.0000  -0.0000  -0.0000  -0.0000  -0.0000  -0.0000  -0.0000
    -0.0000  -0.0000  -0.0000  -0.0000  -0.0000  -0.0000  -0.0000  -0.0000
    -0.0000  -0.0000  -0.0000  -0.0000  -0.0000  -0.0000  -0.0000  -0.0000
    -0.0000  -0.0000

          k = 0.0000 0.0000 0.2406 (  1650 PWs)   bands (ev):

   -71.9653 -68.3809 -38.5328 -38.3307 -37.3694 -34.7697 -34.4155 -33.9049
     8.6812   8.7813  11.1120  11.1728  11.4675  11.5628  13.5743  13.9661
    14.2054  14.2679  14.8512  15.0247  15.0440  15.2832  15.5381  15.6533
    15.8001  15.8823  16.4918  16.6866  17.3638  17.7735  17.9212  18.5715
    30.6861  30.8778  31.7730  31.7958  32.1828  32.2206  33.4537  33.9595
    36.0840  36.1353  36.7012  36.7953  36.8732  37.2732  37.3084  37.3916
    38.7596  38.7645  43.6207  44.2582  46.1901  46.2553  46.3093  46.4015
    48.7721  48.9186  50.7714  50.8078  51.0807  51.4552  51.5009  51.5205
    51.5726  51.6779  55.2753  55.8170  55.9827  56.0391  56.0533  56.1961
    56.3275  56.6384  56.7516  57.4443  62.6722  62.7757  63.1078  63.5789
    64.1486  64.8227  67.0873  67.3544  68.7948  69.5375  69.6245  69.8152
    70.0932  70.2470  73.9529  74.4934  74.9205  75.0328  77.3812  77.4566
    77.5176  77.7384

     occupation numbers 
     1.0000   1.0000   1.0000   1.0000   1.0000   1.0000   1.0000   1.0000
     1.0000   1.0000   1.0000   1.0000   1.0000   1.0000   1.0000   1.0000
     1.0000   1.0000   1.0000   1.0000   1.0000   1.0000   1.0000   1.0000
     1.0000   1.0000   1.0000   1.0007  -0.0020  -0.0000  -0.0000  -0.0000
    -0.0000  -0.0000  -0.0000  -0.0000  -0.0000  -0.0000  -0.0000  -0.0000
    -0.0000  -0.0000  -0.0000  -0.0000  -0.0000  -0.0000  -0.0000  -0.0000
    -0.0000  -0.0000  -0.0000  -0.0000  -0.0000  -0.0000  -0.0000  -0.0000
    -0.0000  -0.0000  -0.0000  -0.0000  -0.0000  -0.0000  -0.0000  -0.0000
    -0.0000  -0.0000  -0.0000  -0.0000  -0.0000  -0.0000  -0.0000  -0.0000
    -0.0000  -0.0000  -0.0000  -0.0000  -0.0000  -0.0000  -0.0000  -0.0000
    -0.0000  -0.0000  -0.0000  -0.0000  -0.0000  -0.0000  -0.0000  -0.0000
    -0.0000  -0.0000  -0.0000  -0.0000  -0.0000  -0.0000  -0.0000  -0.0000
    -0.0000  -0.0000

          k = 0.0000 0.0000-0.3610 (  1666 PWs)   bands (ev):

   -71.9653 -68.3809 -38.5328 -38.3323 -37.3694 -34.7698 -34.4173 -33.9049
     9.3196   9.3843  11.2110  11.2948  11.5446  11.6373  13.4178  13.8361
    13.9037  14.2978  14.6135  14.7037  15.1084  15.1758  15.1973  15.2939
    15.3710  15.6112  16.4867  16.6882  17.1734  17.4745  17.5753  18.5119
    32.5093  32.6760  33.1538  33.2217  33.5013  33.7957  34.0567  34.1364
    34.3412  34.4440  34.7837  35.0961  36.9499  37.0378  37.9030  38.6306
    39.4522  39.5249  39.8405  40.3956  47.6216  47.7012  47.7259  47.7898
    48.8822  48.9071  49.0630  49.0900  49.2557  49.4390  50.8793  51.5355
    52.7595  53.1720  54.0396  54.0568  56.1546  56.3019  56.9493  57.2330
    57.7468  58.3370  59.9861  60.4744  60.6222  60.8181  61.2744  61.6250
    63.6786  63.8804  64.9140  65.3522  67.9866  68.8559  71.9277  72.3036
    72.5132  72.8536  75.1480  75.3727  76.8994  76.9225  76.9541  76.9867
    77.1672  77.3381

     occupation numbers 
     1.0000   1.0000   1.0000   1.0000   1.0000   1.0000   1.0000   1.0000
     1.0000   1.0000   1.0000   1.0000   1.0000   1.0000   1.0000   1.0000
     1.0000   1.0000   1.0000   1.0000   1.0000   1.0000   1.0000   1.0000
     1.0000   1.0000   1.0000   1.0008  -0.0219  -0.0000  -0.0000  -0.0000
    -0.0000  -0.0000  -0.0000  -0.0000  -0.0000  -0.0000  -0.0000  -0.0000
    -0.0000  -0.0000  -0.0000  -0.0000  -0.0000  -0.0000  -0.0000  -0.0000
    -0.0000  -0.0000  -0.0000  -0.0000  -0.0000  -0.0000  -0.0000  -0.0000
    -0.0000  -0.0000  -0.0000  -0.0000  -0.0000  -0.0000  -0.0000  -0.0000
    -0.0000  -0.0000  -0.0000  -0.0000  -0.0000  -0.0000  -0.0000  -0.0000
    -0.0000  -0.0000  -0.0000  -0.0000  -0.0000  -0.0000  -0.0000  -0.0000
    -0.0000  -0.0000  -0.0000  -0.0000  -0.0000  -0.0000  -0.0000  -0.0000
    -0.0000  -0.0000  -0.0000  -0.0000  -0.0000  -0.0000  -0.0000  -0.0000
    -0.0000  -0.0000

          k = 0.0000 0.1111 0.0000 (  1645 PWs)   bands (ev):

   -71.9643 -68.3799 -38.5372 -38.3281 -37.3743 -34.7748 -34.4117 -33.9106
     7.8149   7.9431  10.8655  11.0922  11.3625  11.5236  13.4538  13.7641
    14.0139  14.1829  14.7942  14.9762  15.2288  15.6131  15.9798  16.3437
    16.3812  16.6884  17.5338  17.6097  18.5618  18.6335  20.1413  20.7767
    26.0391  26.7489  27.3215  27.8212  29.4926  29.8251  35.2264  35.3104
    35.3517  35.8568  38.1726  38.2715  38.3020  38.7809  39.1899  39.4159
    40.0547  40.1305  44.7944  44.7949  45.4473  46.0344  46.1098  46.5235
    47.5618  47.5757  48.6481  49.3869  51.3922  51.6277  51.7906  51.9977
    53.5193  54.1274  54.7584  54.7850  56.5153  57.0139  57.1572  57.5995
    59.4696  59.6795  60.2982  60.5137  61.3296  61.4186  62.2612  62.2699
    64.5234  64.7569  65.8774  65.9378  66.9638  67.4862  68.4765  69.1430
    69.9170  69.9258  71.9269  72.3584  72.8219  73.2250  74.7314  75.2051
    76.5962  77.2560

     occupation numbers 
     1.0000   1.0000   1.0000   1.0000   1.0000   1.0000   1.0000   1.0000
     1.0000   1.0000   1.0000   1.0000   1.0000   1.0000   1.0000   1.0000
     1.0000   1.0000   1.0000   1.0000   1.0000   1.0000   1.0000   1.0000
     1.0000   1.0008  -0.0000  -0.0000  -0.0000  -0.0000  -0.0000  -0.0000
    -0.0000  -0.0000  -0.0000  -0.0000  -0.0000  -0.0000  -0.0000  -0.0000
    -0.0000  -0.0000  -0.0000  -0.0000  -0.0000  -0.0000  -0.0000  -0.0000
    -0.0000  -0.0000  -0.0000  -0.0000  -0.0000  -0.0000  -0.0000  -0.0000
    -0.0000  -0.0000  -0.0000  -0.0000  -0.0000  -0.0000  -0.0000  -0.0000
    -0.0000  -0.0000  -0.0000  -0.0000  -0.0000  -0.0000  -0.0000  -0.0000
    -0.0000  -0.0000  -0.0000  -0.0000  -0.0000  -0.0000  -0.0000  -0.0000
    -0.0000  -0.0000  -0.0000  -0.0000  -0.0000  -0.0000  -0.0000  -0.0000
    -0.0000  -0.0000  -0.0000  -0.0000  -0.0000  -0.0000  -0.0000  -0.0000
    -0.0000  -0.0000

          k = 0.0000 0.1111 0.1203 (  1647 PWs)   bands (ev):

   -71.9643 -68.3798 -38.5372 -38.3288 -37.3743 -34.7749 -34.4126 -33.9107
     8.1346   8.2606  10.9862  11.1896  11.4386  11.6130  13.5123  13.8063
    14.0238  14.1773  14.8343  14.9628  15.0926  15.3123  15.8969  16.1171
    16.3656  16.6355  16.9286  17.5412  18.2250  18.6347  18.8300  19.7133
    27.3104  27.7298  28.5987  29.1745  30.1548  30.4941  33.9683  34.3073
    36.2888  36.3633  36.6864  36.9949  38.5666  38.9924  39.1445  39.4137
    40.6242  40.8147  43.4818  43.7086  44.9421  45.3587  46.8267  47.0230
    49.1242  49.1717  49.5862  49.9163  50.4393  51.0462  51.1336  51.3330
    52.7333  52.9477  53.4576  53.9970  57.0424  57.1721  57.3059  57.9890
    58.3094  58.5950  59.8126  60.0156  60.7531  61.0844  64.0017  64.0555
    64.2577  64.4564  66.7161  67.0465  67.1237  67.5138  69.4438  70.0307
    71.0489  71.2508  71.6862  72.0888  73.3995  73.5323  76.1708  76.6666
    77.3306  77.6811

     occupation numbers 
     1.0000   1.0000   1.0000   1.0000   1.0000   1.0000   1.0000   1.0000
     1.0000   1.0000   1.0000   1.0000   1.0000   1.0000   1.0000   1.0000
     1.0000   1.0000   1.0000   1.0000   1.0000   1.0000   1.0000   1.0000
     1.0000   1.0001   0.9968  -0.0000  -0.0000  -0.0000  -0.0000  -0.0000
    -0.0000  -0.0000  -0.0000  -0.0000  -0.0000  -0.0000  -0.0000  -0.0000
    -0.0000  -0.0000  -0.0000  -0.0000  -0.0000  -0.0000  -0.0000  -0.0000
    -0.0000  -0.0000  -0.0000  -0.0000  -0.0000  -0.0000  -0.0000  -0.0000
    -0.0000  -0.0000  -0.0000  -0.0000  -0.0000  -0.0000  -0.0000  -0.0000
    -0.0000  -0.0000  -0.0000  -0.0000  -0.0000  -0.0000  -0.0000  -0.0000
    -0.0000  -0.0000  -0.0000  -0.0000  -0.0000  -0.0000  -0.0000  -0.0000
    -0.0000  -0.0000  -0.0000  -0.0000  -0.0000  -0.0000  -0.0000  -0.0000
    -0.0000  -0.0000  -0.0000  -0.0000  -0.0000  -0.0000  -0.0000  -0.0000
    -0.0000  -0.0000

          k = 0.0000 0.1111 0.2406 (  1657 PWs)   bands (ev):

   -71.9643 -68.3798 -38.5374 -38.3301 -37.3746 -34.7752 -34.4146 -33.9110
     8.9681   9.0802  11.2132  11.4112  11.5862  11.7692  13.4375  13.8755
    14.0993  14.2550  14.3673  14.6910  14.9420  15.1788  15.4571  15.7642
    15.9865  16.2632  16.5202  16.7671  17.3624  17.9118  18.3538  18.6189
    28.9932  29.4625  31.5784  31.6325  32.2282  32.3242  32.7183  33.1655
    35.0040  35.2917  36.8433  37.2726  37.6606  37.9220  38.7200  39.0896
    40.3210  40.3986  43.3227  43.8076  45.4280  45.6255  45.7970  46.1028
    48.0489  48.1838  49.2522  49.4168  50.0868  50.2469  52.7288  52.8718
    53.1534  53.6862  54.2751  54.5414  54.9062  55.2392  56.4751  56.9695
    58.0401  58.2985  59.0468  59.5731  62.2798  62.7646  62.9335  63.3657
    64.6243  64.8770  65.7348  66.0280  68.8962  69.3089  70.5289  70.8910
    71.1164  71.2141  73.2420  73.6106  76.0696  76.2398  76.3674  76.7703
    77.1377  77.2946

     occupation numbers 
     1.0000   1.0000   1.0000   1.0000   1.0000   1.0000   1.0000   1.0000
     1.0000   1.0000   1.0000   1.0000   1.0000   1.0000   1.0000   1.0000
     1.0000   1.0000   1.0000   1.0000   1.0000   1.0000   1.0000   1.0000
     1.0000   1.0000   1.0000   1.0076  -0.0021  -0.0000  -0.0000  -0.0000
    -0.0000  -0.0000  -0.0000  -0.0000  -0.0000  -0.0000  -0.0000  -0.0000
    -0.0000  -0.0000  -0.0000  -0.0000  -0.0000  -0.0000  -0.0000  -0.0000
    -0.0000  -0.0000  -0.0000  -0.0000  -0.0000  -0.0000  -0.0000  -0.0000
    -0.0000  -0.0000  -0.0000  -0.0000  -0.0000  -0.0000  -0.0000  -0.0000
    -0.0000  -0.0000  -0.0000  -0.0000  -0.0000  -0.0000  -0.0000  -0.0000
    -0.0000  -0.0000  -0.0000  -0.0000  -0.0000  -0.0000  -0.0000  -0.0000
    -0.0000  -0.0000  -0.0000  -0.0000  -0.0000  -0.0000  -0.0000  -0.0000
    -0.0000  -0.0000  -0.0000  -0.0000  -0.0000  -0.0000  -0.0000  -0.0000
    -0.0000  -0.0000

          k = 0.0000 0.1111-0.3610 (  1664 PWs)   bands (ev):

   -71.9643 -68.3798 -38.5374 -38.3313 -37.3746 -34.7752 -34.4160 -33.9109
     9.6094   9.6915  11.2815  11.4790  11.6686  11.7388  13.3279  13.6397
    13.8009  14.1797  14.4943  14.6802  14.7489  15.1396  15.3973  15.5372
    15.5540  15.9884  16.2747  16.4040  17.4798  17.6440  17.8214  18.5240
    30.7793  30.8103  31.1856  31.5531  33.1685  33.5713  33.9358  34.1559
    34.4803  35.1450  35.8029  36.2792  37.3214  37.3241  38.4805  38.9985
    40.7497  40.7525  41.3832  41.7711  46.4418  46.6665  46.7510  47.0387
    47.5095  47.5940  47.7032  47.7572  49.7386  49.9315  52.0280  52.1385
    53.4813  53.9750  55.4202  55.4230  55.8117  55.9757  57.1264  57.2356
    58.7613  59.1962  59.7795  60.1283  60.4337  60.8921  61.0206  61.4171
    64.5009  64.7864  67.0659  67.5323  68.3770  69.1664  69.7351  69.9865
    71.2516  71.5536  73.6065  73.7342  77.4714  77.6927  77.9248  78.0021
    78.3761  78.6781

     occupation numbers 
     1.0000   1.0000   1.0000   1.0000   1.0000   1.0000   1.0000   1.0000
     1.0000   1.0000   1.0000   1.0000   1.0000   1.0000   1.0000   1.0000
     1.0000   1.0000   1.0000   1.0000   1.0000   1.0000   1.0000   1.0000
     1.0000   1.0000   1.0000   1.0000  -0.0000  -0.0000  -0.0000  -0.0000
    -0.0000  -0.0000  -0.0000  -0.0000  -0.0000  -0.0000  -0.0000  -0.0000
    -0.0000  -0.0000  -0.0000  -0.0000  -0.0000  -0.0000  -0.0000  -0.0000
    -0.0000  -0.0000  -0.0000  -0.0000  -0.0000  -0.0000  -0.0000  -0.0000
    -0.0000  -0.0000  -0.0000  -0.0000  -0.0000  -0.0000  -0.0000  -0.0000
    -0.0000  -0.0000  -0.0000  -0.0000  -0.0000  -0.0000  -0.0000  -0.0000
    -0.0000  -0.0000  -0.0000  -0.0000  -0.0000  -0.0000  -0.0000  -0.0000
    -0.0000  -0.0000  -0.0000  -0.0000  -0.0000  -0.0000  -0.0000  -0.0000
    -0.0000  -0.0000  -0.0000  -0.0000  -0.0000  -0.0000  -0.0000  -0.0000
    -0.0000  -0.0000

          k = 0.0000 0.2222 0.0000 (  1643 PWs)   bands (ev):

   -71.9618 -68.3770 -38.5490 -38.3267 -37.3870 -34.7891 -34.4098 -33.9255
     8.6751   8.8079  11.2209  11.6633  11.7347  12.2024  13.2128  13.6024
    13.9794  14.0713  14.5460  14.6890  15.0738  15.3057  15.5697  15.7986
    16.3584  16.4388  16.6639  17.7077  18.1858  18.4024  22.1843  22.8799
    23.9611  24.4865  26.5400  27.3001  30.9562  31.3709  33.5198  33.9062
    34.8380  35.0863  37.2683  37.4726  38.6707  38.8320  41.2864  41.4650
    41.6638  41.8017  42.9937  43.3941  44.7185  45.2875  45.4592  46.2885
    47.3405  47.5181  50.5492  50.6112  50.8553  50.9656  51.2673  51.2785
    51.5644  52.0439  56.1115  56.3606  57.2287  57.3105  57.9950  58.0431
    58.5466  58.8553  61.8718  62.3147  62.4608  62.5236  63.8556  63.9354
    64.9632  65.0072  65.9882  66.4730  68.3523  68.5386  70.7022  71.2157
    71.8628  71.8871  72.0819  72.7021  73.7348  73.8844  73.9307  74.3465
    75.4436  76.1657

     occupation numbers 
     1.0000   1.0000   1.0000   1.0000   1.0000   1.0000   1.0000   1.0000
     1.0000   1.0000   1.0000   1.0000   1.0000   1.0000   1.0000   1.0000
     1.0000   1.0000   1.0000   1.0000   1.0000   1.0000   1.0000   1.0000
     1.0000   1.0000   1.0003  -0.0000  -0.0000  -0.0000  -0.0000  -0.0000
    -0.0000  -0.0000  -0.0000  -0.0000  -0.0000  -0.0000  -0.0000  -0.0000
    -0.0000  -0.0000  -0.0000  -0.0000  -0.0000  -0.0000  -0.0000  -0.0000
    -0.0000  -0.0000  -0.0000  -0.0000  -0.0000  -0.0000  -0.0000  -0.0000
    -0.0000  -0.0000  -0.0000  -0.0000  -0.0000  -0.0000  -0.0000  -0.0000
    -0.0000  -0.0000  -0.0000  -0.0000  -0.0000  -0.0000  -0.0000  -0.0000
    -0.0000  -0.0000  -0.0000  -0.0000  -0.0000  -0.0000  -0.0000  -0.0000
    -0.0000  -0.0000  -0.0000  -0.0000  -0.0000  -0.0000  -0.0000  -0.0000
    -0.0000  -0.0000  -0.0000  -0.0000  -0.0000  -0.0000  -0.0000  -0.0000
    -0.0000  -0.0000

          k = 0.0000 0.2222 0.1203 (  1635 PWs)   bands (ev):

   -71.9617 -68.3769 -38.5489 -38.3269 -37.3869 -34.7891 -34.4102 -33.9254
     8.9450   9.0877  11.2880  11.6959  11.8709  12.3084  13.2425  13.5549
    13.8624  14.1006  14.3092  14.7975  14.9721  15.1854  15.5989  15.6502
    16.3303  16.4043  16.5206  17.6160  17.9679  18.6122  20.3728  21.2963
    24.4823  25.0464  28.7465  29.3752  31.4491  31.8269  31.9584  32.3695
    35.9255  36.0016  36.1105  36.3724  39.8441  40.1388  40.6120  40.8704
    42.6138  42.6864  42.7309  43.1909  43.3361  43.7969  45.8535  45.9888
    48.0880  48.5145  48.8903  49.0514  49.9911  50.2519  52.1975  52.5022
    52.8487  52.8708  54.4546  55.0474  57.6513  57.8848  58.4175  58.6166
    59.1308  59.2378  60.9175  61.0561  61.5703  61.7267  62.9229  63.3263
    66.6156  66.7476  67.1292  67.5181  68.4603  68.7411  69.8152  69.9795
    71.8755  72.4335  73.0858  73.2277  73.6233  73.7974  74.2630  74.6417
    76.4810  76.5588

     occupation numbers 
     1.0000   1.0000   1.0000   1.0000   1.0000   1.0000   1.0000   1.0000
     1.0000   1.0000   1.0000   1.0000   1.0000   1.0000   1.0000   1.0000
     1.0000   1.0000   1.0000   1.0000   1.0000   1.0000   1.0000   1.0000
     1.0000   1.0000   1.0000  -0.0000  -0.0000  -0.0000  -0.0000  -0.0000
    -0.0000  -0.0000  -0.0000  -0.0000  -0.0000  -0.0000  -0.0000  -0.0000
    -0.0000  -0.0000  -0.0000  -0.0000  -0.0000  -0.0000  -0.0000  -0.0000
    -0.0000  -0.0000  -0.0000  -0.0000  -0.0000  -0.0000  -0.0000  -0.0000
    -0.0000  -0.0000  -0.0000  -0.0000  -0.0000  -0.0000  -0.0000  -0.0000
    -0.0000  -0.0000  -0.0000  -0.0000  -0.0000  -0.0000  -0.0000  -0.0000
    -0.0000  -0.0000  -0.0000  -0.0000  -0.0000  -0.0000  -0.0000  -0.0000
    -0.0000  -0.0000  -0.0000  -0.0000  -0.0000  -0.0000  -0.0000  -0.0000
    -0.0000  -0.0000  -0.0000  -0.0000  -0.0000  -0.0000  -0.0000  -0.0000
    -0.0000  -0.0000

          k = 0.0000 0.2222 0.2406 (  1645 PWs)   bands (ev):

   -71.9618 -68.3769 -38.5490 -38.3280 -37.3870 -34.7892 -34.4117 -33.9254
     9.6315   9.8012  11.3301  11.6879  12.1936  12.4827  13.1588  13.5506
    13.9066  13.9313  14.0761  14.5650  14.9502  15.1462  15.4923  15.6507
    15.7693  16.3263  16.4983  17.5371  17.8310  18.0230  18.6781  19.2430
    25.8876  26.4795  29.7505  30.2947  32.1343  32.4950  33.0990  33.4156
    35.0604  35.2260  36.7881  36.9114  37.8747  38.3135  40.9227  41.3471
    42.0826  42.3784  43.6821  43.9428  44.0578  44.2473  44.8488  45.0612
    47.3241  47.4495  47.9100  47.9764  50.0383  50.4079  51.8180  52.4844
    52.9963  53.1833  55.2546  55.5064  57.3054  57.5466  58.2370  58.5565
    60.4007  60.6138  61.0969  61.2191  61.7996  62.2350  62.6105  63.1025
    64.2468  64.2987  66.4387  66.8272  69.3697  69.6816  70.6758  71.1679
    71.6840  71.7969  72.8746  73.2440  75.0017  75.3426  76.2530  76.4637
    76.4829  76.7241

     occupation numbers 
     1.0000   1.0000   1.0000   1.0000   1.0000   1.0000   1.0000   1.0000
     1.0000   1.0000   1.0000   1.0000   1.0000   1.0000   1.0000   1.0000
     1.0000   1.0000   1.0000   1.0000   1.0000   1.0000   1.0000   1.0000
     1.0000   1.0000   1.0000  -0.0000  -0.0000  -0.0000  -0.0000  -0.0000
    -0.0000  -0.0000  -0.0000  -0.0000  -0.0000  -0.0000  -0.0000  -0.0000
    -0.0000  -0.0000  -0.0000  -0.0000  -0.0000  -0.0000  -0.0000  -0.0000
    -0.0000  -0.0000  -0.0000  -0.0000  -0.0000  -0.0000  -0.0000  -0.0000
    -0.0000  -0.0000  -0.0000  -0.0000  -0.0000  -0.0000  -0.0000  -0.0000
    -0.0000  -0.0000  -0.0000  -0.0000  -0.0000  -0.0000  -0.0000  -0.0000
    -0.0000  -0.0000  -0.0000  -0.0000  -0.0000  -0.0000  -0.0000  -0.0000
    -0.0000  -0.0000  -0.0000  -0.0000  -0.0000  -0.0000  -0.0000  -0.0000
    -0.0000  -0.0000  -0.0000  -0.0000  -0.0000  -0.0000  -0.0000  -0.0000
    -0.0000  -0.0000

          k = 0.0000 0.2222-0.3610 (  1656 PWs)   bands (ev):

   -71.9618 -68.3769 -38.5491 -38.3285 -37.3872 -34.7894 -34.4125 -33.9256
    10.1586  10.3443  11.2046  11.5438  12.2672  12.4848  13.4036  13.4109
    13.8264  14.0121  14.1651  14.4657  14.6738  15.1568  15.3218  15.8265
    15.9838  16.2478  16.2816  16.3569  17.9369  18.0704  18.1695  18.5635
    27.5036  27.7595  28.1436  28.7281  33.4699  33.7480  34.9717  35.1388
    35.3103  35.6693  36.2365  36.3093  37.2538  37.5916  38.4289  38.8896
    43.4971  43.7068  43.9663  44.1060  44.2486  44.7028  45.0040  45.1210
    46.8828  46.9196  47.8664  47.8815  48.9120  49.1059  50.5225  50.7838
    54.4844  54.9936  56.1241  56.7608  58.3194  58.5746  58.8155  59.0947
    59.8706  60.0599  60.2753  60.3281  60.3753  60.4460  62.8961  63.1566
    65.5090  65.7717  67.3377  67.4441  69.0791  69.3669  69.6902  69.7782
    70.6342  70.6531  70.9197  71.2008  75.1394  75.5544  76.9925  77.2776
    78.8039  79.1910

     occupation numbers 
     1.0000   1.0000   1.0000   1.0000   1.0000   1.0000   1.0000   1.0000
     1.0000   1.0000   1.0000   1.0000   1.0000   1.0000   1.0000   1.0000
     1.0000   1.0000   1.0000   1.0000   1.0000   1.0000   1.0000   1.0000
     1.0000   1.0000   1.0000   1.0000  -0.0000  -0.0000  -0.0000  -0.0000
    -0.0000  -0.0000  -0.0000  -0.0000  -0.0000  -0.0000  -0.0000  -0.0000
    -0.0000  -0.0000  -0.0000  -0.0000  -0.0000  -0.0000  -0.0000  -0.0000
    -0.0000  -0.0000  -0.0000  -0.0000  -0.0000  -0.0000  -0.0000  -0.0000
    -0.0000  -0.0000  -0.0000  -0.0000  -0.0000  -0.0000  -0.0000  -0.0000
    -0.0000  -0.0000  -0.0000  -0.0000  -0.0000  -0.0000  -0.0000  -0.0000
    -0.0000  -0.0000  -0.0000  -0.0000  -0.0000  -0.0000  -0.0000  -0.0000
    -0.0000  -0.0000  -0.0000  -0.0000  -0.0000  -0.0000  -0.0000  -0.0000
    -0.0000  -0.0000  -0.0000  -0.0000  -0.0000  -0.0000  -0.0000  -0.0000
    -0.0000  -0.0000

          k = 0.0000 0.3333 0.0000 (  1631 PWs)   bands (ev):

   -71.9589 -68.3736 -38.5628 -38.3249 -37.4009 -34.8061 -34.4074 -33.9414
     9.8278   9.9633  11.7092  12.0680  12.3831  12.4927  13.0131  13.3512
    13.8436  13.9150  14.3379  14.4979  14.9455  15.0583  15.5474  15.9398
    16.0255  16.1801  16.3244  17.8349  18.0865  18.1260  21.3369  22.0269
    24.4838  25.2088  26.6386  27.3431  31.3420  31.7032  32.7397  33.0207
    33.3849  33.6245  36.5411  36.7972  38.8443  38.8612  40.0241  40.0283
    41.4094  41.9546  43.9282  44.4794  44.8801  45.3162  47.3551  47.3638
    47.6498  48.0757  50.2864  50.3254  50.5000  50.5187  50.5906  51.0669
    54.6951  54.8091  54.9695  55.2487  56.3582  56.5393  58.7441  58.9077
    59.8620  60.5138  61.4562  61.6825  62.7281  62.9446  65.2795  65.8090
    66.0982  66.6400  67.2133  67.6902  67.7351  68.0178  69.7007  69.7240
    74.4624  74.5098  74.9574  74.9975  75.2729  75.3486  75.3640  75.5238
    75.5845  75.9073

     occupation numbers 
     1.0000   1.0000   1.0000   1.0000   1.0000   1.0000   1.0000   1.0000
     1.0000   1.0000   1.0000   1.0000   1.0000   1.0000   1.0000   1.0000
     1.0000   1.0000   1.0000   1.0000   1.0000   1.0000   1.0000   1.0000
     1.0000   1.0000   1.0000  -0.0000  -0.0000  -0.0000  -0.0000  -0.0000
    -0.0000  -0.0000  -0.0000  -0.0000  -0.0000  -0.0000  -0.0000  -0.0000
    -0.0000  -0.0000  -0.0000  -0.0000  -0.0000  -0.0000  -0.0000  -0.0000
    -0.0000  -0.0000  -0.0000  -0.0000  -0.0000  -0.0000  -0.0000  -0.0000
    -0.0000  -0.0000  -0.0000  -0.0000  -0.0000  -0.0000  -0.0000  -0.0000
    -0.0000  -0.0000  -0.0000  -0.0000  -0.0000  -0.0000  -0.0000  -0.0000
    -0.0000  -0.0000  -0.0000  -0.0000  -0.0000  -0.0000  -0.0000  -0.0000
    -0.0000  -0.0000  -0.0000  -0.0000  -0.0000  -0.0000  -0.0000  -0.0000
    -0.0000  -0.0000  -0.0000  -0.0000  -0.0000  -0.0000  -0.0000  -0.0000
    -0.0000  -0.0000

          k = 0.0000 0.3333 0.1203 (  1640 PWs)   bands (ev):

   -71.9589 -68.3736 -38.5629 -38.3251 -37.4010 -34.8062 -34.4077 -33.9414
     9.9441  10.1286  11.5751  11.9200  12.4348  12.6830  13.1826  13.5965
    13.8009  13.9846  14.0622  14.5556  14.8561  15.1990  15.4656  15.7851
    16.1192  16.2420  16.4031  17.8054  18.0362  18.3814  21.1707  21.8603
    22.5925  23.4835  28.7558  29.3925  29.9552  30.4347  33.4386  33.8990
    34.6049  34.8683  36.1601  36.2536  37.8725  38.1369  40.7536  41.3844
    41.9987  42.0817  42.5567  42.8601  46.1920  46.3024  46.6794  46.9401
    47.1940  47.4175  48.8487  49.0757  49.8450  50.1584  51.8954  52.4908
    55.1958  55.4114  56.3417  56.4244  56.6205  56.8208  57.2149  57.7116
    58.5596  58.6245  62.6095  63.0854  64.0419  64.4070  65.3804  65.4384
    65.8504  66.0587  67.1754  67.6504  68.8002  69.0713  70.5116  70.9541
    72.0212  72.0627  72.6065  72.6844  72.8078  73.2477  74.8392  75.2726
    76.2777  76.4798

     occupation numbers 
     1.0000   1.0000   1.0000   1.0000   1.0000   1.0000   1.0000   1.0000
     1.0000   1.0000   1.0000   1.0000   1.0000   1.0000   1.0000   1.0000
     1.0000   1.0000   1.0000   1.0000   1.0000   1.0000   1.0000   1.0000
     1.0000   1.0000   1.0000  -0.0000  -0.0000  -0.0000  -0.0000  -0.0000
    -0.0000  -0.0000  -0.0000  -0.0000  -0.0000  -0.0000  -0.0000  -0.0000
    -0.0000  -0.0000  -0.0000  -0.0000  -0.0000  -0.0000  -0.0000  -0.0000
    -0.0000  -0.0000  -0.0000  -0.0000  -0.0000  -0.0000  -0.0000  -0.0000
    -0.0000  -0.0000  -0.0000  -0.0000  -0.0000  -0.0000  -0.0000  -0.0000
    -0.0000  -0.0000  -0.0000  -0.0000  -0.0000  -0.0000  -0.0000  -0.0000
    -0.0000  -0.0000  -0.0000  -0.0000  -0.0000  -0.0000  -0.0000  -0.0000
    -0.0000  -0.0000  -0.0000  -0.0000  -0.0000  -0.0000  -0.0000  -0.0000
    -0.0000  -0.0000  -0.0000  -0.0000  -0.0000  -0.0000  -0.0000  -0.0000
    -0.0000  -0.0000

          k = 0.0000 0.3333 0.2406 (  1639 PWs)   bands (ev):

   -71.9589 -68.3736 -38.5625 -38.3257 -37.4007 -34.8059 -34.4086 -33.9411
    10.2172  10.5079  11.1589  11.5237  12.9002  13.2399  13.5107  13.7385
    13.9004  14.0972  14.1720  14.2872  14.7934  15.2017  15.5181  15.7722
    15.9596  16.4112  16.5062  17.8885  18.1277  18.5667  18.7960  19.8824
    23.2457  24.0042  26.9411  27.6112  32.8775  33.2155  34.4565  34.8616
    34.9803  35.1018  35.7582  36.0048  38.5281  38.8636  39.5787  39.8904
    42.2923  42.3858  42.8013  42.8352  44.2035  44.4126  46.1812  46.3696
    47.0737  47.0815  49.1108  49.3723  50.5888  50.9581  51.9241  52.4830
    53.5697  53.9918  55.4109  55.9001  58.0439  58.3226  59.0332  59.1128
    61.2112  61.4972  61.5831  61.6414  63.8215  64.2316  64.5687  64.9888
    65.7051  66.0554  67.7952  68.0091  68.8770  69.2620  69.5483  69.8607
    69.9791  70.2090  71.3592  71.7061  72.2970  72.3573  74.9035  75.1246
    76.7924  77.1271

     occupation numbers 
     1.0000   1.0000   1.0000   1.0000   1.0000   1.0000   1.0000   1.0000
     1.0000   1.0000   1.0000   1.0000   1.0000   1.0000   1.0000   1.0000
     1.0000   1.0000   1.0000   1.0000   1.0000   1.0000   1.0000   1.0000
     1.0000   1.0000   1.0000  -0.0000  -0.0000  -0.0000  -0.0000  -0.0000
    -0.0000  -0.0000  -0.0000  -0.0000  -0.0000  -0.0000  -0.0000  -0.0000
    -0.0000  -0.0000  -0.0000  -0.0000  -0.0000  -0.0000  -0.0000  -0.0000
    -0.0000  -0.0000  -0.0000  -0.0000  -0.0000  -0.0000  -0.0000  -0.0000
    -0.0000  -0.0000  -0.0000  -0.0000  -0.0000  -0.0000  -0.0000  -0.0000
    -0.0000  -0.0000  -0.0000  -0.0000  -0.0000  -0.0000  -0.0000  -0.0000
    -0.0000  -0.0000  -0.0000  -0.0000  -0.0000  -0.0000  -0.0000  -0.0000
    -0.0000  -0.0000  -0.0000  -0.0000  -0.0000  -0.0000  -0.0000  -0.0000
    -0.0000  -0.0000  -0.0000  -0.0000  -0.0000  -0.0000  -0.0000  -0.0000
    -0.0000  -0.0000

          k = 0.0000 0.3333-0.3610 (  1642 PWs)   bands (ev):

   -71.9589 -68.3736 -38.5625 -38.3257 -37.4007 -34.8059 -34.4088 -33.9411
    10.4565  10.7846  10.8709  11.2014  13.2356  13.5700  13.6230  13.7036
    14.0620  14.0795  14.3094  14.5042  14.8395  15.0330  15.4507  16.1184
    16.3045  16.4265  16.5881  16.6164  18.2009  18.4085  18.5128  18.6254
    24.4237  24.9493  25.4753  26.2752  33.8776  33.9259  34.8555  34.9769
    35.5983  36.3326  36.6770  36.7959  37.9823  38.4040  38.6429  38.8676
    41.3393  41.9770  42.4933  43.0283  45.4856  45.5631  45.9298  45.9308
    46.1113  46.2336  48.0053  48.0553  50.5351  50.8845  52.6163  53.0187
    55.0470  55.4261  55.8347  56.6176  57.3578  57.8258  57.8711  58.1493
    62.4178  62.6177  62.8750  63.1404  64.2796  64.6231  64.6906  64.7704
    65.3053  65.4219  66.0807  66.0902  69.0600  69.3045  69.4698  69.5734
    69.8436  70.4128  70.5689  70.7169  71.1573  71.5270  72.7326  73.3196
    79.9800  80.4730

     occupation numbers 
     1.0000   1.0000   1.0000   1.0000   1.0000   1.0000   1.0000   1.0000
     1.0000   1.0000   1.0000   1.0000   1.0000   1.0000   1.0000   1.0000
     1.0000   1.0000   1.0000   1.0000   1.0000   1.0000   1.0000   1.0000
     1.0000   1.0000   1.0000   1.0000  -0.0000  -0.0000  -0.0000  -0.0000
    -0.0000  -0.0000  -0.0000  -0.0000  -0.0000  -0.0000  -0.0000  -0.0000
    -0.0000  -0.0000  -0.0000  -0.0000  -0.0000  -0.0000  -0.0000  -0.0000
    -0.0000  -0.0000  -0.0000  -0.0000  -0.0000  -0.0000  -0.0000  -0.0000
    -0.0000  -0.0000  -0.0000  -0.0000  -0.0000  -0.0000  -0.0000  -0.0000
    -0.0000  -0.0000  -0.0000  -0.0000  -0.0000  -0.0000  -0.0000  -0.0000
    -0.0000  -0.0000  -0.0000  -0.0000  -0.0000  -0.0000  -0.0000  -0.0000
    -0.0000  -0.0000  -0.0000  -0.0000  -0.0000  -0.0000  -0.0000  -0.0000
    -0.0000  -0.0000  -0.0000  -0.0000  -0.0000  -0.0000  -0.0000  -0.0000
    -0.0000  -0.0000

          k = 0.0000 0.4444 0.0000 (  1636 PWs)   bands (ev):

   -71.9570 -68.3715 -38.5723 -38.3236 -37.4100 -34.8180 -34.4057 -33.9516
    10.7595  10.8843  12.1413  12.1745  12.4991  12.6821  12.8792  13.4423
    13.6303  13.6566  14.4068  14.5422  14.6315  14.7930  15.7025  15.8196
    15.8530  16.1748  16.8903  17.6336  17.8229  18.9420  19.4771  20.2073
    26.5877  26.9469  27.5959  27.9405  29.5098  29.8377  30.4862  31.1273
    35.2663  35.6182  35.7973  36.2434  37.7971  37.8744  38.6485  39.3744
    41.9925  42.0573  43.4444  43.9880  44.7280  44.7663  47.9154  48.2210
    49.5433  50.1076  50.2271  50.2830  51.4073  51.7283  53.2029  53.6073
    53.8566  53.9075  55.4605  55.8635  56.1151  56.1248  58.0094  58.0711
    58.8344  59.3091  62.0110  62.2028  63.0112  63.6303  63.8587  63.8663
    67.6812  68.0283  68.4005  69.0233  69.7566  69.7594  70.4923  71.1023
    72.0956  72.5462  73.9535  74.0413  74.5126  74.5890  75.2300  75.3443
    75.3712  75.8473

     occupation numbers 
     1.0000   1.0000   1.0000   1.0000   1.0000   1.0000   1.0000   1.0000
     1.0000   1.0000   1.0000   1.0000   1.0000   1.0000   1.0000   1.0000
     1.0000   1.0000   1.0000   1.0000   1.0000   1.0000   1.0000   1.0000
     1.0000   1.0000   1.0331  -0.0000  -0.0000  -0.0000  -0.0000  -0.0000
    -0.0000  -0.0000  -0.0000  -0.0000  -0.0000  -0.0000  -0.0000  -0.0000
    -0.0000  -0.0000  -0.0000  -0.0000  -0.0000  -0.0000  -0.0000  -0.0000
    -0.0000  -0.0000  -0.0000  -0.0000  -0.0000  -0.0000  -0.0000  -0.0000
    -0.0000  -0.0000  -0.0000  -0.0000  -0.0000  -0.0000  -0.0000  -0.0000
    -0.0000  -0.0000  -0.0000  -0.0000  -0.0000  -0.0000  -0.0000  -0.0000
    -0.0000  -0.0000  -0.0000  -0.0000  -0.0000  -0.0000  -0.0000  -0.0000
    -0.0000  -0.0000  -0.0000  -0.0000  -0.0000  -0.0000  -0.0000  -0.0000
    -0.0000  -0.0000  -0.0000  -0.0000  -0.0000  -0.0000  -0.0000  -0.0000
    -0.0000  -0.0000

          k = 0.0000 0.4444 0.1203 (  1648 PWs)   bands (ev):

   -71.9571 -68.3715 -38.5722 -38.3240 -37.4099 -34.8179 -34.4062 -33.9515
    10.6801  10.9122  11.4627  11.7913  12.6807  12.8579  13.5691  13.6471
    13.8387  14.0245  14.2108  14.3607  14.6234  15.2395  15.6143  15.9276
    16.0002  16.2737  16.8108  17.8552  18.0824  18.8027  19.3725  20.1057
    24.0230  24.8244  26.5760  27.3049  31.0096  31.4858  32.8410  33.2119
    35.3453  35.6137  35.9120  36.3766  36.7410  36.7985  38.3312  38.9858
    42.6577  42.8991  43.5208  43.9787  44.8021  44.8174  46.3059  46.5652
    50.0149  50.2399  50.3755  50.7807  51.3495  51.9599  52.7059  52.9968
    53.7594  53.8789  54.6362  54.9009  56.4788  56.5253  58.9048  59.3833
    59.4475  59.7770  62.3948  62.6611  63.6638  63.7221  66.1065  66.5757
    67.1014  67.5568  68.1095  68.4990  68.6881  69.0764  69.9791  70.4143
    70.8328  71.1322  71.4082  71.8496  73.3324  73.7859  75.5777  75.6213
    76.8161  77.0340

     occupation numbers 
     1.0000   1.0000   1.0000   1.0000   1.0000   1.0000   1.0000   1.0000
     1.0000   1.0000   1.0000   1.0000   1.0000   1.0000   1.0000   1.0000
     1.0000   1.0000   1.0000   1.0000   1.0000   1.0000   1.0000   1.0000
     1.0000   1.0000   1.0188  -0.0000  -0.0000  -0.0000  -0.0000  -0.0000
    -0.0000  -0.0000  -0.0000  -0.0000  -0.0000  -0.0000  -0.0000  -0.0000
    -0.0000  -0.0000  -0.0000  -0.0000  -0.0000  -0.0000  -0.0000  -0.0000
    -0.0000  -0.0000  -0.0000  -0.0000  -0.0000  -0.0000  -0.0000  -0.0000
    -0.0000  -0.0000  -0.0000  -0.0000  -0.0000  -0.0000  -0.0000  -0.0000
    -0.0000  -0.0000  -0.0000  -0.0000  -0.0000  -0.0000  -0.0000  -0.0000
    -0.0000  -0.0000  -0.0000  -0.0000  -0.0000  -0.0000  -0.0000  -0.0000
    -0.0000  -0.0000  -0.0000  -0.0000  -0.0000  -0.0000  -0.0000  -0.0000
    -0.0000  -0.0000  -0.0000  -0.0000  -0.0000  -0.0000  -0.0000  -0.0000
    -0.0000  -0.0000

          k = 0.0000 0.4444 0.2406 (  1641 PWs)   bands (ev):

   -71.9571 -68.3715 -38.5718 -38.3240 -37.4096 -34.8175 -34.4064 -33.9510
    10.5444  10.8063  10.9744  11.2289  13.0279  13.3783  13.5929  13.8286
    13.9566  14.3204  14.6752  14.8755  15.1554  15.5266  15.8732  16.0679
    16.3730  16.4757  16.5809  18.2081  18.3492  18.5246  18.5879  19.4338
    22.2641  23.1936  24.6819  25.5203  33.6168  33.7791  34.3936  34.5241
    35.4577  35.7224  36.1613  36.7499  37.2612  37.4310  38.4601  38.7283
    41.2427  41.8794  42.8159  43.2293  44.4608  44.7935  46.6025  46.6990
    47.3559  47.4446  49.0653  49.3794  52.7012  53.2694  53.7018  54.3062
    54.4505  54.7758  56.2727  56.4782  56.9332  57.1152  58.0808  58.2048
    61.9138  62.0325  62.3360  62.5358  63.5827  63.7784  66.4007  66.5311
    66.9147  66.9759  67.0721  67.3388  68.8975  69.0558  69.6277  69.8210
    70.0516  70.3255  71.3816  71.7156  72.0249  72.4838  73.3649  73.3881
    76.1796  76.3642

     occupation numbers 
     1.0000   1.0000   1.0000   1.0000   1.0000   1.0000   1.0000   1.0000
     1.0000   1.0000   1.0000   1.0000   1.0000   1.0000   1.0000   1.0000
     1.0000   1.0000   1.0000   1.0000   1.0000   1.0000   1.0000   1.0000
     1.0000   1.0000   1.0000  -0.0000  -0.0000  -0.0000  -0.0000  -0.0000
    -0.0000  -0.0000  -0.0000  -0.0000  -0.0000  -0.0000  -0.0000  -0.0000
    -0.0000  -0.0000  -0.0000  -0.0000  -0.0000  -0.0000  -0.0000  -0.0000
    -0.0000  -0.0000  -0.0000  -0.0000  -0.0000  -0.0000  -0.0000  -0.0000
    -0.0000  -0.0000  -0.0000  -0.0000  -0.0000  -0.0000  -0.0000  -0.0000
    -0.0000  -0.0000  -0.0000  -0.0000  -0.0000  -0.0000  -0.0000  -0.0000
    -0.0000  -0.0000  -0.0000  -0.0000  -0.0000  -0.0000  -0.0000  -0.0000
    -0.0000  -0.0000  -0.0000  -0.0000  -0.0000  -0.0000  -0.0000  -0.0000
    -0.0000  -0.0000  -0.0000  -0.0000  -0.0000  -0.0000  -0.0000  -0.0000
    -0.0000  -0.0000

          k = 0.0000 0.4444-0.3610 (  1636 PWs)   bands (ev):

   -71.9571 -68.3715 -38.5715 -38.3241 -37.4093 -34.8172 -34.4065 -33.9507
    10.5384  10.5489  10.9395  11.0284  13.1353  13.4507  13.5617  13.8623
    14.1837  14.3486  15.0004  15.4888  15.6368  15.8987  16.1102  16.4610
    16.5043  16.5517  16.7059  16.8384  18.1048  18.5306  18.6184  18.6622
    22.0642  22.9204  23.8303  24.7698  34.0048  34.0468  34.1448  34.2142
    36.0283  36.7464  36.8649  37.2019  38.4743  38.5234  39.5583  39.7591
    40.0000  40.7627  41.5529  42.1539  44.2813  44.5962  45.2387  45.5293
    47.0297  47.4239  48.0745  48.1363  54.4541  54.8279  55.0925  55.2408
    55.4293  55.9144  56.5466  56.7862  57.5836  57.8054  58.3572  58.4012
    60.0083  60.3128  61.8909  62.3287  63.7252  63.9449  65.2560  65.6341
    65.9861  66.0711  66.3361  66.4415  69.9824  69.9961  70.5917  70.6986
    70.7689  71.1350  71.3743  71.4145  72.2547  72.4705  73.1424  73.6188
    76.7509  76.7866

     occupation numbers 
     1.0000   1.0000   1.0000   1.0000   1.0000   1.0000   1.0000   1.0000
     1.0000   1.0000   1.0000   1.0000   1.0000   1.0000   1.0000   1.0000
     1.0000   1.0000   1.0000   1.0000   1.0000   1.0000   1.0000   1.0000
     1.0000   1.0000   1.0014   1.0281  -0.0000  -0.0000  -0.0000  -0.0000
    -0.0000  -0.0000  -0.0000  -0.0000  -0.0000  -0.0000  -0.0000  -0.0000
    -0.0000  -0.0000  -0.0000  -0.0000  -0.0000  -0.0000  -0.0000  -0.0000
    -0.0000  -0.0000  -0.0000  -0.0000  -0.0000  -0.0000  -0.0000  -0.0000
    -0.0000  -0.0000  -0.0000  -0.0000  -0.0000  -0.0000  -0.0000  -0.0000
    -0.0000  -0.0000  -0.0000  -0.0000  -0.0000  -0.0000  -0.0000  -0.0000
    -0.0000  -0.0000  -0.0000  -0.0000  -0.0000  -0.0000  -0.0000  -0.0000
    -0.0000  -0.0000  -0.0000  -0.0000  -0.0000  -0.0000  -0.0000  -0.0000
    -0.0000  -0.0000  -0.0000  -0.0000  -0.0000  -0.0000  -0.0000  -0.0000
    -0.0000  -0.0000

          k = 0.1111 0.1111 0.0000 (  1647 PWs)   bands (ev):

   -71.9634 -68.3787 -38.5417 -38.3276 -37.3795 -34.7801 -34.4110 -33.9168
     8.1266   8.2577  11.0638  11.2593  11.6060  11.6471  13.3220  13.8742
    14.0713  14.1011  14.6689  14.8475  15.0321  15.2200  15.8578  16.0877
    16.4248  16.6162  17.1403  17.6431  18.3924  18.7151  20.9262  21.5481
    25.9913  26.7272  27.3900  27.8277  28.1330  28.6262  35.5241  35.6154
    36.4741  36.8542  37.2835  37.4356  38.2395  38.5916  39.4995  39.6575
    39.7936  39.9235  45.2891  45.4515  45.7720  45.8854  46.5952  46.5996
    46.8232  47.2035  47.8539  47.8592  50.3005  50.3916  53.5799  53.8513
    54.6614  54.8950  55.1362  55.7155  55.9073  56.0587  56.6128  56.6129
    59.0166  59.1148  59.7297  60.3342  60.6712  60.8184  64.9818  65.1897
    66.0613  66.0755  66.3324  66.3692  66.4852  66.9503  68.6741  68.9720
    69.6955  70.2941  73.0303  73.3486  73.7897  73.8987  75.1202  75.4785
    76.5377  76.9800

     occupation numbers 
     1.0000   1.0000   1.0000   1.0000   1.0000   1.0000   1.0000   1.0000
     1.0000   1.0000   1.0000   1.0000   1.0000   1.0000   1.0000   1.0000
     1.0000   1.0000   1.0000   1.0000   1.0000   1.0000   1.0000   1.0000
     1.0000   1.0000   0.0307  -0.0000  -0.0000  -0.0000  -0.0000  -0.0000
    -0.0000  -0.0000  -0.0000  -0.0000  -0.0000  -0.0000  -0.0000  -0.0000
    -0.0000  -0.0000  -0.0000  -0.0000  -0.0000  -0.0000  -0.0000  -0.0000
    -0.0000  -0.0000  -0.0000  -0.0000  -0.0000  -0.0000  -0.0000  -0.0000
    -0.0000  -0.0000  -0.0000  -0.0000  -0.0000  -0.0000  -0.0000  -0.0000
    -0.0000  -0.0000  -0.0000  -0.0000  -0.0000  -0.0000  -0.0000  -0.0000
    -0.0000  -0.0000  -0.0000  -0.0000  -0.0000  -0.0000  -0.0000  -0.0000
    -0.0000  -0.0000  -0.0000  -0.0000  -0.0000  -0.0000  -0.0000  -0.0000
    -0.0000  -0.0000  -0.0000  -0.0000  -0.0000  -0.0000  -0.0000  -0.0000
    -0.0000  -0.0000

          k = 0.1111 0.1111 0.1203 (  1644 PWs)   bands (ev):

   -71.9633 -68.3787 -38.5417 -38.3281 -37.3794 -34.7801 -34.4117 -33.9167
     8.4407   8.5714  11.2010  11.3367  11.6997  11.7123  13.3655  13.8469
    14.0843  14.1188  14.5647  14.6955  14.8720  15.2043  15.7516  16.1213
    16.3435  16.3801  16.8028  17.5969  18.3773  18.4054  19.4518  20.3745
    27.4374  27.7944  28.2302  28.6185  29.0665  29.6146  34.4550  34.6726
    35.2753  35.5042  37.9048  37.9869  38.8234  39.0423  39.3395  39.4780
    40.9099  41.1593  42.7339  42.9808  46.4381  46.4992  46.8088  46.8771
    47.1816  47.4870  48.6621  48.8054  50.1008  50.1263  52.1983  52.8233
    54.1680  54.3899  54.5026  54.7399  55.7416  56.0579  56.6126  57.0743
    59.1737  59.4493  60.5351  60.6258  61.1634  61.7394  62.8221  63.1229
    65.0756  65.1726  66.5466  66.9799  68.3796  68.7728  70.0068  70.3240
    70.8272  71.3759  73.2228  73.4378  73.6411  73.9119  75.0274  75.4593
    77.7501  78.4216

     occupation numbers 
     1.0000   1.0000   1.0000   1.0000   1.0000   1.0000   1.0000   1.0000
     1.0000   1.0000   1.0000   1.0000   1.0000   1.0000   1.0000   1.0000
     1.0000   1.0000   1.0000   1.0000   1.0000   1.0000   1.0000   1.0000
     1.0000   1.0000   1.0163  -0.0000  -0.0000  -0.0000  -0.0000  -0.0000
    -0.0000  -0.0000  -0.0000  -0.0000  -0.0000  -0.0000  -0.0000  -0.0000
    -0.0000  -0.0000  -0.0000  -0.0000  -0.0000  -0.0000  -0.0000  -0.0000
    -0.0000  -0.0000  -0.0000  -0.0000  -0.0000  -0.0000  -0.0000  -0.0000
    -0.0000  -0.0000  -0.0000  -0.0000  -0.0000  -0.0000  -0.0000  -0.0000
    -0.0000  -0.0000  -0.0000  -0.0000  -0.0000  -0.0000  -0.0000  -0.0000
    -0.0000  -0.0000  -0.0000  -0.0000  -0.0000  -0.0000  -0.0000  -0.0000
    -0.0000  -0.0000  -0.0000  -0.0000  -0.0000  -0.0000  -0.0000  -0.0000
    -0.0000  -0.0000  -0.0000  -0.0000  -0.0000  -0.0000  -0.0000  -0.0000
    -0.0000  -0.0000

          k = 0.1111 0.1111 0.2406 (  1650 PWs)   bands (ev):

   -71.9633 -68.3786 -38.5418 -38.3292 -37.3796 -34.7804 -34.4134 -33.9169
     9.2667   9.3893  11.4387  11.5133  11.8282  11.8382  13.3320  13.7260
    13.8475  14.1902  14.3116  14.5436  14.7111  15.2253  15.4070  15.8168
    16.0477  16.1005  16.3443  17.4292  17.5735  17.8580  18.2343  19.0861
    29.0585  29.4751  29.7250  30.2576  31.8193  32.3324  33.0358  33.2904
    33.6829  33.8880  37.9236  38.3081  38.7358  39.2089  39.6127  39.6204
    40.3453  40.5254  43.1231  43.3869  44.1630  44.8071  46.6216  46.8914
    47.8405  47.9552  48.4368  48.4824  51.0344  51.2147  51.2970  51.6158
    52.9196  53.4207  54.8430  54.9250  55.6223  55.6892  57.9727  58.3928
    58.5299  59.1323  59.2890  59.6924  60.5692  61.0798  64.0852  64.3927
    65.1427  65.4573  65.7165  66.1154  68.9847  69.4933  70.5662  70.6303
    71.5200  71.7952  73.1508  73.4899  75.8292  76.2009  76.6304  76.8783
    77.0380  77.5179

     occupation numbers 
     1.0000   1.0000   1.0000   1.0000   1.0000   1.0000   1.0000   1.0000
     1.0000   1.0000   1.0000   1.0000   1.0000   1.0000   1.0000   1.0000
     1.0000   1.0000   1.0000   1.0000   1.0000   1.0000   1.0000   1.0000
     1.0000   1.0000   1.0000  -0.0002  -0.0000  -0.0000  -0.0000  -0.0000
    -0.0000  -0.0000  -0.0000  -0.0000  -0.0000  -0.0000  -0.0000  -0.0000
    -0.0000  -0.0000  -0.0000  -0.0000  -0.0000  -0.0000  -0.0000  -0.0000
    -0.0000  -0.0000  -0.0000  -0.0000  -0.0000  -0.0000  -0.0000  -0.0000
    -0.0000  -0.0000  -0.0000  -0.0000  -0.0000  -0.0000  -0.0000  -0.0000
    -0.0000  -0.0000  -0.0000  -0.0000  -0.0000  -0.0000  -0.0000  -0.0000
    -0.0000  -0.0000  -0.0000  -0.0000  -0.0000  -0.0000  -0.0000  -0.0000
    -0.0000  -0.0000  -0.0000  -0.0000  -0.0000  -0.0000  -0.0000  -0.0000
    -0.0000  -0.0000  -0.0000  -0.0000  -0.0000  -0.0000  -0.0000  -0.0000
    -0.0000  -0.0000

          k = 0.1111 0.1111-0.3610 (  1660 PWs)   bands (ev):

   -71.9633 -68.3786 -38.5419 -38.3302 -37.3797 -34.7805 -34.4146 -33.9170
     9.9318  10.0259  11.3753  11.6135  11.7254  11.8986  13.2458  13.4858
    13.6301  14.2152  14.4625  14.6079  14.7638  14.8998  15.1824  15.4310
    15.7294  16.2132  16.4330  16.5557  17.4858  17.5642  18.2266  18.6469
    30.5807  30.7819  30.8986  31.2855  31.5318  31.7906  32.3074  32.5841
    34.8396  35.3062  37.2965  37.3685  37.5867  37.7967  40.2830  40.3437
    40.8591  41.0933  41.8370  42.0593  44.4083  44.8798  46.5344  46.5994
    47.6085  47.8460  48.1889  48.2190  51.3392  51.4872  51.8265  52.0842
    52.2227  52.5025  53.9233  54.4664  56.8331  56.8422  57.3322  57.9370
    58.9669  59.3611  60.3834  60.5756  61.5709  61.8706  62.3766  62.3945
    64.1019  64.3316  66.3408  66.6321  68.5634  69.2131  69.5385  69.9507
    73.3204  73.4556  73.8521  73.9938  74.7606  74.9735  76.5235  76.5888
    79.5697  79.8659

     occupation numbers 
     1.0000   1.0000   1.0000   1.0000   1.0000   1.0000   1.0000   1.0000
     1.0000   1.0000   1.0000   1.0000   1.0000   1.0000   1.0000   1.0000
     1.0000   1.0000   1.0000   1.0000   1.0000   1.0000   1.0000   1.0000
     1.0000   1.0000   1.0000   1.0000  -0.0000  -0.0000  -0.0000  -0.0000
    -0.0000  -0.0000  -0.0000  -0.0000  -0.0000  -0.0000  -0.0000  -0.0000
    -0.0000  -0.0000  -0.0000  -0.0000  -0.0000  -0.0000  -0.0000  -0.0000
    -0.0000  -0.0000  -0.0000  -0.0000  -0.0000  -0.0000  -0.0000  -0.0000
    -0.0000  -0.0000  -0.0000  -0.0000  -0.0000  -0.0000  -0.0000  -0.0000
    -0.0000  -0.0000  -0.0000  -0.0000  -0.0000  -0.0000  -0.0000  -0.0000
    -0.0000  -0.0000  -0.0000  -0.0000  -0.0000  -0.0000  -0.0000  -0.0000
    -0.0000  -0.0000  -0.0000  -0.0000  -0.0000  -0.0000  -0.0000  -0.0000
    -0.0000  -0.0000  -0.0000  -0.0000  -0.0000  -0.0000  -0.0000  -0.0000
    -0.0000  -0.0000

          k = 0.1111 0.2222 0.0000 (  1653 PWs)   bands (ev):

   -71.9609 -68.3759 -38.5536 -38.3260 -37.3925 -34.7943 -34.4089 -33.9320
     8.9733   9.1134  11.4302  11.8429  11.8978  12.2734  13.0679  13.5696
    13.9826  14.0670  14.2746  14.6206  14.7342  15.2748  15.3594  15.5773
    16.4241  16.5910  16.7730  17.7445  18.0638  18.5756  22.6656  23.2820
    24.3477  24.9063  26.4683  27.1832  28.9751  29.5001  34.4873  34.6782
    35.1508  35.4107  37.5296  37.7061  38.2605  38.3129  39.1921  39.5090
    42.3112  42.9793  43.4252  43.8344  45.0793  45.2402  45.3745  45.4704
    47.9013  48.2424  48.9699  49.0529  51.3455  51.4040  53.1567  53.5579
    53.6130  53.7026  53.7970  53.9834  56.8509  57.1409  57.7824  58.2208
    60.0880  60.2427  60.9698  60.9711  61.5802  62.2295  63.5969  63.7865
    66.1699  66.6985  66.9597  67.0236  69.9777  70.2415  70.3585  70.6501
    71.3188  71.4389  72.2140  72.7561  73.3180  73.9789  74.9741  75.4641
    76.7259  77.0214

     occupation numbers 
     1.0000   1.0000   1.0000   1.0000   1.0000   1.0000   1.0000   1.0000
     1.0000   1.0000   1.0000   1.0000   1.0000   1.0000   1.0000   1.0000
     1.0000   1.0000   1.0000   1.0000   1.0000   1.0000   1.0000   1.0000
     1.0000   1.0000   1.0088  -0.0000  -0.0000  -0.0000  -0.0000  -0.0000
    -0.0000  -0.0000  -0.0000  -0.0000  -0.0000  -0.0000  -0.0000  -0.0000
    -0.0000  -0.0000  -0.0000  -0.0000  -0.0000  -0.0000  -0.0000  -0.0000
    -0.0000  -0.0000  -0.0000  -0.0000  -0.0000  -0.0000  -0.0000  -0.0000
    -0.0000  -0.0000  -0.0000  -0.0000  -0.0000  -0.0000  -0.0000  -0.0000
    -0.0000  -0.0000  -0.0000  -0.0000  -0.0000  -0.0000  -0.0000  -0.0000
    -0.0000  -0.0000  -0.0000  -0.0000  -0.0000  -0.0000  -0.0000  -0.0000
    -0.0000  -0.0000  -0.0000  -0.0000  -0.0000  -0.0000  -0.0000  -0.0000
    -0.0000  -0.0000  -0.0000  -0.0000  -0.0000  -0.0000  -0.0000  -0.0000
    -0.0000  -0.0000

          k = 0.1111 0.2222 0.1203 (  1644 PWs)   bands (ev):

   -71.9608 -68.3758 -38.5534 -38.3263 -37.3923 -34.7942 -34.4094 -33.9318
     9.2477   9.3972  11.5258  11.9169  11.9759  12.3561  13.1099  13.5114
    13.7332  13.9537  14.2264  14.6361  14.7747  15.1843  15.3215  15.5955
    16.2862  16.5413  16.7344  17.6824  18.0412  18.4733  20.7979  21.6639
    24.8602  25.4381  28.5698  29.0730  29.6158  30.0895  32.3570  32.7556
    35.6498  35.7393  37.2259  37.5193  38.9173  39.2609  39.7274  39.9153
    42.2473  42.6743  43.2211  43.6183  45.3456  45.6301  45.9387  46.0639
    46.5972  46.8608  47.7765  48.1319  51.7269  51.9657  53.0260  53.1871
    53.8874  54.1135  55.1157  55.3641  55.8750  56.3841  57.0557  57.3584
    59.2605  59.7018  61.3538  61.5760  62.5485  62.9724  63.3423  63.9633
    65.3965  65.5655  67.7388  67.9730  68.4630  68.8406  70.9643  71.2268
    71.9201  72.3467  73.1475  73.3891  74.1733  74.5959  74.9768  75.6190
    76.3232  76.5094

     occupation numbers 
     1.0000   1.0000   1.0000   1.0000   1.0000   1.0000   1.0000   1.0000
     1.0000   1.0000   1.0000   1.0000   1.0000   1.0000   1.0000   1.0000
     1.0000   1.0000   1.0000   1.0000   1.0000   1.0000   1.0000   1.0000
     1.0000   1.0000   1.0032  -0.0000  -0.0000  -0.0000  -0.0000  -0.0000
    -0.0000  -0.0000  -0.0000  -0.0000  -0.0000  -0.0000  -0.0000  -0.0000
    -0.0000  -0.0000  -0.0000  -0.0000  -0.0000  -0.0000  -0.0000  -0.0000
    -0.0000  -0.0000  -0.0000  -0.0000  -0.0000  -0.0000  -0.0000  -0.0000
    -0.0000  -0.0000  -0.0000  -0.0000  -0.0000  -0.0000  -0.0000  -0.0000
    -0.0000  -0.0000  -0.0000  -0.0000  -0.0000  -0.0000  -0.0000  -0.0000
    -0.0000  -0.0000  -0.0000  -0.0000  -0.0000  -0.0000  -0.0000  -0.0000
    -0.0000  -0.0000  -0.0000  -0.0000  -0.0000  -0.0000  -0.0000  -0.0000
    -0.0000  -0.0000  -0.0000  -0.0000  -0.0000  -0.0000  -0.0000  -0.0000
    -0.0000  -0.0000

          k = 0.1111 0.2222 0.2406 (  1641 PWs)   bands (ev):

   -71.9608 -68.3758 -38.5532 -38.3272 -37.3921 -34.7941 -34.4107 -33.9316
     9.9563  10.1327  11.5733  11.9062  12.2288  12.5028  13.0581  13.3734
    13.6825  13.8509  14.1650  14.4898  14.7136  14.9960  15.1437  15.7964
    16.0573  16.1841  16.6318  17.5393  18.0758  18.3067  18.4661  19.7928
    26.2070  26.7966  29.7571  30.2850  30.6228  31.1087  32.4515  32.9058
    34.0834  34.3111  37.7867  38.0552  38.7694  38.9647  40.5894  40.7637
    41.8763  42.3310  42.9190  43.0876  43.7974  44.1229  46.6719  46.8826
    47.6667  48.0128  48.2392  48.5162  49.3816  49.5039  51.4862  52.0188
    53.9635  54.1648  56.0021  56.2046  57.4329  57.7686  58.0167  58.2983
    58.3937  58.7485  59.8177  60.2689  62.1366  62.5073  64.6071  65.0459
    66.2809  66.6692  66.9346  67.4142  68.4809  68.6048  68.9995  69.2702
    72.9675  73.0072  73.2417  73.3618  75.2972  75.6728  76.6006  76.8693
    77.0958  77.1662

[...]
    11.7217  11.7653  12.0012  12.0624  12.6715  12.7866  12.9627  13.2675
    13.2980  14.1419  14.4960  14.6287  14.9765  15.2782  15.4857  15.6580
    15.8690  17.4291  17.6880  18.0149  18.8738  20.1801  20.4749  21.3431
    26.1603  26.4412  26.5650  27.1314  27.1838  27.4049  27.6550  27.8863
    31.9215  32.5518  34.3061  34.5006  38.6494  38.9669  39.6925  39.8004
    42.7235  42.8485  44.9541  44.9838  47.8606  47.8998  48.5702  48.7839
    49.0398  49.3323  49.3711  49.4541  53.5276  53.8615  54.2888  54.3157
    54.7652  55.0913  55.9815  56.4209  57.6902  58.0288  58.1112  58.6165
    59.1269  59.1768  59.6693  59.7322  65.7660  66.1065  67.1079  67.3664
    67.4639  67.9563  68.3556  68.7774  70.7283  71.2236  71.5114  71.6508
    71.9840  72.1008  72.4817  72.8144  74.0273  74.7734  75.0624  75.5276
    75.9706  76.1292

     occupation numbers 
     1.0000   1.0000   1.0000   1.0000   1.0000   1.0000   1.0000   1.0000
     1.0000   1.0000   1.0000   1.0000   1.0000   1.0000   1.0000   1.0000
     1.0000   1.0000   1.0000   1.0000   1.0000   1.0000   1.0000   1.0000
     1.0000  -0.0002  -0.0000  -0.0000  -0.0000  -0.0000  -0.0000  -0.0000
    -0.0000  -0.0000  -0.0000  -0.0000  -0.0000  -0.0000  -0.0000  -0.0000
    -0.0000  -0.0000  -0.0000  -0.0000  -0.0000  -0.0000  -0.0000  -0.0000
    -0.0000  -0.0000  -0.0000  -0.0000  -0.0000  -0.0000  -0.0000  -0.0000
    -0.0000  -0.0000  -0.0000  -0.0000  -0.0000  -0.0000  -0.0000  -0.0000
    -0.0000  -0.0000  -0.0000  -0.0000  -0.0000  -0.0000  -0.0000  -0.0000
    -0.0000  -0.0000  -0.0000  -0.0000  -0.0000  -0.0000  -0.0000  -0.0000
    -0.0000  -0.0000  -0.0000  -0.0000  -0.0000  -0.0000  -0.0000  -0.0000
    -0.0000  -0.0000  -0.0000  -0.0000  -0.0000  -0.0000  -0.0000  -0.0000
    -0.0000  -0.0000

          k = 0.3333 0.4444 0.0000 (  1638 PWs)   bands (ev):

   -71.9508 -68.3643 -38.5979 -38.3187 -37.4428 -34.8467 -34.3991 -33.9915
    10.6745  11.0539  11.4098  11.4326  11.8824  12.2403  12.4045  12.6995
    14.7798  15.1152  15.1192  15.5804  15.9212  15.9601  16.4374  16.8022
    17.4557  17.9997  18.2697  18.2858  18.6070  18.7479  20.0390  20.6451
    26.0450  26.7015  28.1660  28.2440  28.7507  28.8655  29.0978  29.5036
    30.3551  30.4374  30.9335  30.9895  37.8235  37.8777  38.2036  38.2501
    39.3470  39.5508  39.8809  40.1340  48.5644  48.7191  50.8609  50.9502
    54.0293  54.0482  54.5588  54.7360  55.3061  55.6213  56.3285  56.4527
    57.1277  57.3234  57.3899  57.5352  57.9576  58.1326  61.2421  61.3279
    61.5259  62.2061  62.9776  63.1184  63.2446  63.5616  63.9128  64.1324
    65.1812  65.4413  65.8030  66.2751  66.5130  66.7136  67.5717  67.8200
    69.1115  69.1934  69.8954  70.0796  71.4978  71.7105  72.0739  72.2370
    73.3942  73.7635

     occupation numbers 
     1.0000   1.0000   1.0000   1.0000   1.0000   1.0000   1.0000   1.0000
     1.0000   1.0000   1.0000   1.0000   1.0000   1.0000   1.0000   1.0000
     1.0000   1.0000   1.0000   1.0000   1.0000   1.0000   1.0000   1.0162
    -0.0001  -0.0000  -0.0000  -0.0000  -0.0000  -0.0000  -0.0000  -0.0000
    -0.0000  -0.0000  -0.0000  -0.0000  -0.0000  -0.0000  -0.0000  -0.0000
    -0.0000  -0.0000  -0.0000  -0.0000  -0.0000  -0.0000  -0.0000  -0.0000
    -0.0000  -0.0000  -0.0000  -0.0000  -0.0000  -0.0000  -0.0000  -0.0000
    -0.0000  -0.0000  -0.0000  -0.0000  -0.0000  -0.0000  -0.0000  -0.0000
    -0.0000  -0.0000  -0.0000  -0.0000  -0.0000  -0.0000  -0.0000  -0.0000
    -0.0000  -0.0000  -0.0000  -0.0000  -0.0000  -0.0000  -0.0000  -0.0000
    -0.0000  -0.0000  -0.0000  -0.0000  -0.0000  -0.0000  -0.0000  -0.0000
    -0.0000  -0.0000  -0.0000  -0.0000  -0.0000  -0.0000  -0.0000  -0.0000
    -0.0000  -0.0000

          k = 0.3333 0.4444 0.1203 (  1630 PWs)   bands (ev):

   -71.9508 -68.3643 -38.5979 -38.3189 -37.4428 -34.8467 -34.3994 -33.9914
    10.8094  11.1583  11.5256  11.6651  11.9859  12.2916  12.7287  12.7590
    14.3700  14.7032  15.0154  15.1742  15.6765  15.9561  16.3834  16.6134
    17.4957  17.9104  18.2063  18.3409  18.6473  19.4885  20.6664  21.3950
    25.2646  25.6763  26.8356  27.3216  27.7089  28.1234  28.9939  29.6527
    30.6389  31.1276  32.3143  32.4452  37.0270  37.2514  37.4147  37.7695
    40.4198  40.8410  42.8424  43.0396  48.7087  48.8724  50.2952  50.4436
    51.0637  51.1696  51.7669  51.8439  55.5618  55.8300  56.3678  56.6758
    56.9796  57.3232  58.2822  58.6425  59.1645  59.4007  59.8415  59.9805
    61.5672  62.0585  63.3311  63.5494  63.7097  64.0451  64.5018  64.8915
    65.4066  65.5937  66.3014  66.5685  66.8245  66.8705  67.6091  68.0078
    69.6441  70.0817  70.4769  70.9081  71.3232  71.6574  72.5735  73.0298
    73.6772  74.1739

     occupation numbers 
     1.0000   1.0000   1.0000   1.0000   1.0000   1.0000   1.0000   1.0000
     1.0000   1.0000   1.0000   1.0000   1.0000   1.0000   1.0000   1.0000
     1.0000   1.0000   1.0000   1.0000   1.0000   1.0000   1.0000   1.0000
    -0.0000  -0.0000  -0.0000  -0.0000  -0.0000  -0.0000  -0.0000  -0.0000
    -0.0000  -0.0000  -0.0000  -0.0000  -0.0000  -0.0000  -0.0000  -0.0000
    -0.0000  -0.0000  -0.0000  -0.0000  -0.0000  -0.0000  -0.0000  -0.0000
    -0.0000  -0.0000  -0.0000  -0.0000  -0.0000  -0.0000  -0.0000  -0.0000
    -0.0000  -0.0000  -0.0000  -0.0000  -0.0000  -0.0000  -0.0000  -0.0000
    -0.0000  -0.0000  -0.0000  -0.0000  -0.0000  -0.0000  -0.0000  -0.0000
    -0.0000  -0.0000  -0.0000  -0.0000  -0.0000  -0.0000  -0.0000  -0.0000
    -0.0000  -0.0000  -0.0000  -0.0000  -0.0000  -0.0000  -0.0000  -0.0000
    -0.0000  -0.0000  -0.0000  -0.0000  -0.0000  -0.0000  -0.0000  -0.0000
    -0.0000  -0.0000

          k = 0.3333 0.4444 0.2406 (  1633 PWs)   bands (ev):

   -71.9507 -68.3643 -38.5980 -38.3197 -37.4429 -34.8470 -34.4005 -33.9915
    11.1483  11.4066  11.7591  12.0229  12.2114  12.6428  12.8843  13.5057
    13.6921  13.9696  14.7437  14.7925  15.4096  15.7790  15.9173  16.5848
    16.6756  17.7488  17.9140  18.4887  19.5749  20.7464  21.9928  22.7319
    23.2474  23.8165  25.5497  26.1878  27.2562  27.8858  28.8675  29.5388
    30.4896  30.8810  32.3537  32.6528  37.4886  37.7807  39.1935  39.3911
    43.4507  43.7454  45.0990  45.4922  47.2197  47.4380  48.4643  48.5698
    49.4749  49.5763  51.5787  51.6923  53.2288  53.9080  54.3797  54.7418
    56.8278  56.9345  57.1012  57.3129  58.8495  59.0059  59.7596  59.9114
    61.1309  61.6285  63.6111  63.7682  63.9945  64.1990  65.0726  65.2766
    66.6094  67.0549  67.5570  67.8204  68.5405  68.8122  69.0513  69.2451
    70.5663  71.1285  71.2071  71.5248  72.5142  72.7956  74.0105  74.6149
    75.4526  76.0144

     occupation numbers 
     1.0000   1.0000   1.0000   1.0000   1.0000   1.0000   1.0000   1.0000
     1.0000   1.0000   1.0000   1.0000   1.0000   1.0000   1.0000   1.0000
     1.0000   1.0000   1.0000   1.0000   1.0000   1.0000   1.0000   1.0000
     1.0005  -0.0000  -0.0000  -0.0000  -0.0000  -0.0000  -0.0000  -0.0000
    -0.0000  -0.0000  -0.0000  -0.0000  -0.0000  -0.0000  -0.0000  -0.0000
    -0.0000  -0.0000  -0.0000  -0.0000  -0.0000  -0.0000  -0.0000  -0.0000
    -0.0000  -0.0000  -0.0000  -0.0000  -0.0000  -0.0000  -0.0000  -0.0000
    -0.0000  -0.0000  -0.0000  -0.0000  -0.0000  -0.0000  -0.0000  -0.0000
    -0.0000  -0.0000  -0.0000  -0.0000  -0.0000  -0.0000  -0.0000  -0.0000
    -0.0000  -0.0000  -0.0000  -0.0000  -0.0000  -0.0000  -0.0000  -0.0000
    -0.0000  -0.0000  -0.0000  -0.0000  -0.0000  -0.0000  -0.0000  -0.0000
    -0.0000  -0.0000  -0.0000  -0.0000  -0.0000  -0.0000  -0.0000  -0.0000
    -0.0000  -0.0000

          k = 0.3333 0.4444-0.3610 (  1638 PWs)   bands (ev):

   -71.9508 -68.3643 -38.5982 -38.3202 -37.4430 -34.8471 -34.4011 -33.9917
    11.4511  11.5436  11.8094  11.9815  12.6722  12.8459  12.9179  13.1580
    13.6381  14.2810  14.5635  15.0869  15.2710  15.3845  15.7255  15.8792
    16.5794  17.6911  17.6943  18.4187  20.6364  21.3568  21.8430  22.5036
    23.5564  23.9636  24.3855  25.0430  27.5977  28.3555  29.0591  29.1568
    29.8799  30.4242  31.8128  32.1402  39.0420  39.3140  41.2359  41.2478
    42.4795  42.6802  45.0887  45.3667  47.2792  47.7870  48.8528  49.5507
    50.1664  50.1911  50.7382  51.0149  52.4981  52.5809  53.8499  53.9094
    54.4459  54.9361  56.4873  56.5167  58.4151  58.8937  59.9073  60.1674
    62.1429  62.5516  62.6531  62.9240  63.9322  64.3243  64.8221  64.8466
    66.8547  67.2475  67.8045  68.2334  68.2962  68.8019  71.3361  71.4205
    72.6599  73.0038  73.2707  73.5579  73.6453  74.1722  74.9037  75.1818
    75.3597  75.7455

     occupation numbers 
     1.0000   1.0000   1.0000   1.0000   1.0000   1.0000   1.0000   1.0000
     1.0000   1.0000   1.0000   1.0000   1.0000   1.0000   1.0000   1.0000
     1.0000   1.0000   1.0000   1.0000   1.0000   1.0000   1.0000   1.0000
     1.0000  -0.0000  -0.0000  -0.0000  -0.0000  -0.0000  -0.0000  -0.0000
    -0.0000  -0.0000  -0.0000  -0.0000  -0.0000  -0.0000  -0.0000  -0.0000
    -0.0000  -0.0000  -0.0000  -0.0000  -0.0000  -0.0000  -0.0000  -0.0000
    -0.0000  -0.0000  -0.0000  -0.0000  -0.0000  -0.0000  -0.0000  -0.0000
    -0.0000  -0.0000  -0.0000  -0.0000  -0.0000  -0.0000  -0.0000  -0.0000
    -0.0000  -0.0000  -0.0000  -0.0000  -0.0000  -0.0000  -0.0000  -0.0000
    -0.0000  -0.0000  -0.0000  -0.0000  -0.0000  -0.0000  -0.0000  -0.0000
    -0.0000  -0.0000  -0.0000  -0.0000  -0.0000  -0.0000  -0.0000  -0.0000
    -0.0000  -0.0000  -0.0000  -0.0000  -0.0000  -0.0000  -0.0000  -0.0000
    -0.0000  -0.0000

          k = 0.4444 0.4444 0.0000 (  1622 PWs)   bands (ev):

   -71.9489 -68.3622 -38.6055 -38.3171 -37.4517 -34.8556 -34.3969 -34.0020
    10.2907  10.6620  11.2175  11.2752  11.5788  12.0708  12.3646  12.4136
    15.4930  15.7096  16.1950  16.3485  16.4076  16.8731  17.0834  17.9160
    18.0611  18.3554  18.4102  18.6252  18.6681  18.7809  19.5043  19.9254
    24.9498  25.7254  27.3107  28.1574  28.2801  28.5076  28.7864  28.8952
    29.9181  30.1112  30.9883  31.0256  37.0138  37.2062  37.6101  37.9476
    38.1404  38.1418  38.5812  38.6181  51.3403  51.4764  52.7247  52.8864
    55.4146  55.4700  56.9110  56.9239  56.9335  57.0354  57.1871  57.2641
    58.3201  58.6678  59.1956  59.2565  60.0067  60.3023  60.3341  60.4286
    61.2265  61.3038  62.9302  63.0403  63.2407  63.2434  63.7491  63.7786
    63.8526  64.0744  64.6897  64.9413  65.2202  65.7405  65.8078  66.6158
    67.1971  67.7171  68.4541  68.8219  69.5040  69.6687  70.9234  71.1156
    71.3938  71.8521

     occupation numbers 
     1.0000   1.0000   1.0000   1.0000   1.0000   1.0000   1.0000   1.0000
     1.0000   1.0000   1.0000   1.0000   1.0000   1.0000   1.0000   1.0000
     1.0000   1.0000   1.0000   1.0000   1.0000   1.0354   0.2513  -0.0000
    -0.0000  -0.0000  -0.0000  -0.0000  -0.0000  -0.0000  -0.0000  -0.0000
    -0.0000  -0.0000  -0.0000  -0.0000  -0.0000  -0.0000  -0.0000  -0.0000
    -0.0000  -0.0000  -0.0000  -0.0000  -0.0000  -0.0000  -0.0000  -0.0000
    -0.0000  -0.0000  -0.0000  -0.0000  -0.0000  -0.0000  -0.0000  -0.0000
    -0.0000  -0.0000  -0.0000  -0.0000  -0.0000  -0.0000  -0.0000  -0.0000
    -0.0000  -0.0000  -0.0000  -0.0000  -0.0000  -0.0000  -0.0000  -0.0000
    -0.0000  -0.0000  -0.0000  -0.0000  -0.0000  -0.0000  -0.0000  -0.0000
    -0.0000  -0.0000  -0.0000  -0.0000  -0.0000  -0.0000  -0.0000  -0.0000
    -0.0000  -0.0000  -0.0000  -0.0000  -0.0000  -0.0000  -0.0000  -0.0000
    -0.0000  -0.0000

          k = 0.4444 0.4444 0.1203 (  1620 PWs)   bands (ev):

   -71.9489 -68.3622 -38.6057 -38.3174 -37.4518 -34.8558 -34.3974 -34.0021
    10.4499  10.7842  11.3445  11.5301  11.7216  12.1532  12.4297  12.7748
    15.0678  15.3342  15.3555  15.9380  16.1907  16.5674  16.9628  17.3096
    17.8834  18.0402  18.4923  18.6472  19.0950  20.0770  20.4945  21.1616
    25.0107  25.7147  26.3386  27.0904  27.2490  27.7645  28.7282  28.9684
    29.3550  29.6203  30.5762  30.7318  37.3994  37.7551  38.4120  38.7727
    38.9295  39.3456  40.6859  40.9167  51.0023  51.0678  51.1444  51.2072
    53.0932  53.1084  54.6276  54.7522  56.0830  56.1070  56.8269  57.5167
    57.7885  58.0121  59.6919  59.7900  60.1530  60.2036  60.8000  61.0465
    61.9413  62.0941  62.4576  62.9230  63.3289  63.5110  63.5150  63.6000
    65.7820  66.1145  66.1686  66.2315  66.5186  66.7925  67.1599  67.3247
    67.6238  68.0686  69.1205  69.3590  69.8511  69.9221  70.5803  70.9370
    72.2802  72.8342

     occupation numbers 
     1.0000   1.0000   1.0000   1.0000   1.0000   1.0000   1.0000   1.0000
     1.0000   1.0000   1.0000   1.0000   1.0000   1.0000   1.0000   1.0000
     1.0000   1.0000   1.0000   1.0000   1.0000   1.0000   0.9092  -0.0087
    -0.0000  -0.0000  -0.0000  -0.0000  -0.0000  -0.0000  -0.0000  -0.0000
    -0.0000  -0.0000  -0.0000  -0.0000  -0.0000  -0.0000  -0.0000  -0.0000
    -0.0000  -0.0000  -0.0000  -0.0000  -0.0000  -0.0000  -0.0000  -0.0000
    -0.0000  -0.0000  -0.0000  -0.0000  -0.0000  -0.0000  -0.0000  -0.0000
    -0.0000  -0.0000  -0.0000  -0.0000  -0.0000  -0.0000  -0.0000  -0.0000
    -0.0000  -0.0000  -0.0000  -0.0000  -0.0000  -0.0000  -0.0000  -0.0000
    -0.0000  -0.0000  -0.0000  -0.0000  -0.0000  -0.0000  -0.0000  -0.0000
    -0.0000  -0.0000  -0.0000  -0.0000  -0.0000  -0.0000  -0.0000  -0.0000
    -0.0000  -0.0000  -0.0000  -0.0000  -0.0000  -0.0000  -0.0000  -0.0000
    -0.0000  -0.0000

          k = 0.4444 0.4444 0.2406 (  1634 PWs)   bands (ev):

   -71.9489 -68.3622 -38.6062 -38.3186 -37.4522 -34.8564 -34.3989 -34.0026
    10.8229  11.0556  11.6889  12.0113  12.1094  12.4920  12.5857  13.7634
    13.9518  14.1778  14.8987  15.5938  15.8332  15.9225  16.0867  16.8916
    17.3319  17.8571  18.1069  18.6373  20.8325  21.7668  22.4536  23.1384
    24.5919  25.1168  25.3250  26.0282  26.2093  26.7756  27.2578  27.6273
    28.4049  28.8425  29.9340  30.3689  39.0339  39.3479  40.1995  40.4623
    42.1739  42.6679  44.1901  44.2867  47.8497  47.9504  47.9845  48.0861
    51.6334  52.4659  52.7516  52.7917  55.2093  55.2968  55.3161  55.3718
    56.4228  56.4374  58.6072  58.8643  59.9727  59.9918  60.3611  60.6890
    61.5486  61.9802  62.2943  62.4754  63.6334  64.0604  65.1924  65.3526
    65.6060  65.9013  68.0397  68.1609  68.3334  68.6582  69.2853  69.8767
    69.9817  70.4144  70.8805  71.2778  71.6253  71.8814  72.0435  72.4009
    72.8219  72.9847

     occupation numbers 
     1.0000   1.0000   1.0000   1.0000   1.0000   1.0000   1.0000   1.0000
     1.0000   1.0000   1.0000   1.0000   1.0000   1.0000   1.0000   1.0000
     1.0000   1.0000   1.0000   1.0000   1.0000   1.0000   1.0000   1.0326
    -0.0050  -0.0000  -0.0000  -0.0000  -0.0000  -0.0000  -0.0000  -0.0000
    -0.0000  -0.0000  -0.0000  -0.0000  -0.0000  -0.0000  -0.0000  -0.0000
    -0.0000  -0.0000  -0.0000  -0.0000  -0.0000  -0.0000  -0.0000  -0.0000
    -0.0000  -0.0000  -0.0000  -0.0000  -0.0000  -0.0000  -0.0000  -0.0000
    -0.0000  -0.0000  -0.0000  -0.0000  -0.0000  -0.0000  -0.0000  -0.0000
    -0.0000  -0.0000  -0.0000  -0.0000  -0.0000  -0.0000  -0.0000  -0.0000
    -0.0000  -0.0000  -0.0000  -0.0000  -0.0000  -0.0000  -0.0000  -0.0000
    -0.0000  -0.0000  -0.0000  -0.0000  -0.0000  -0.0000  -0.0000  -0.0000
    -0.0000  -0.0000  -0.0000  -0.0000  -0.0000  -0.0000  -0.0000  -0.0000
    -0.0000  -0.0000

          k = 0.4444 0.4444-0.3610 (  1642 PWs)   bands (ev):

   -71.9489 -68.3622 -38.6065 -38.3190 -37.4525 -34.8568 -34.3995 -34.0029
    11.0540  11.2104  11.9612  12.1544  12.4856  12.6776  12.8998  13.3381
    13.4991  14.6272  15.1289  15.2267  15.3774  15.5387  15.8519  15.9245
    17.3420  17.8137  17.9018  18.6360  22.0551  22.7269  23.4724  24.0659
    24.3120  24.7090  25.2187  25.4584  25.8946  26.2393  26.6167  26.7430
    27.4150  28.1194  29.7766  30.2331  40.7045  40.9744  41.6218  41.8464
    43.9324  43.9735  45.3057  45.8011  45.8224  45.8742  47.7134  48.4518
    49.1630  49.4231  53.2256  53.2328  53.6180  53.6662  54.6516  54.7785
    56.2542  56.2666  57.4930  57.8490  59.9011  60.0328  60.0551  60.1466
    61.0645  61.7169  63.3232  63.7383  63.9587  64.3011  65.1870  65.4306
    65.6241  65.8150  67.2795  67.9198  68.1905  68.8134  68.9889  69.6731
    71.2007  71.2374  71.9511  72.2616  73.8156  74.2176  74.3233  74.3982
    76.4364  76.5347

     occupation numbers 
     1.0000   1.0000   1.0000   1.0000   1.0000   1.0000   1.0000   1.0000
     1.0000   1.0000   1.0000   1.0000   1.0000   1.0000   1.0000   1.0000
     1.0000   1.0000   1.0000   1.0000   1.0000   1.0000   1.0000   1.0000
    -0.0038  -0.0000  -0.0000  -0.0000  -0.0000  -0.0000  -0.0000  -0.0000
    -0.0000  -0.0000  -0.0000  -0.0000  -0.0000  -0.0000  -0.0000  -0.0000
    -0.0000  -0.0000  -0.0000  -0.0000  -0.0000  -0.0000  -0.0000  -0.0000
    -0.0000  -0.0000  -0.0000  -0.0000  -0.0000  -0.0000  -0.0000  -0.0000
    -0.0000  -0.0000  -0.0000  -0.0000  -0.0000  -0.0000  -0.0000  -0.0000
    -0.0000  -0.0000  -0.0000  -0.0000  -0.0000  -0.0000  -0.0000  -0.0000
    -0.0000  -0.0000  -0.0000  -0.0000  -0.0000  -0.0000  -0.0000  -0.0000
    -0.0000  -0.0000  -0.0000  -0.0000  -0.0000  -0.0000  -0.0000  -0.0000
    -0.0000  -0.0000  -0.0000  -0.0000  -0.0000  -0.0000  -0.0000  -0.0000
    -0.0000  -0.0000

     the Fermi energy is    17.0412 ev
     (compare with:    16.9627 eV, computed in scf)

     Writing all to output data dir ./work/pwscf.save/
 
     init_run     :      0.78s CPU      0.83s WALL (       1 calls)
     electrons    :     21.73s CPU     22.32s WALL (       1 calls)

     Called by init_run:
     wfcinit      :      0.00s CPU      0.00s WALL (       1 calls)
     wfcinit:atom :      0.00s CPU      0.01s WALL (      15 calls)
     wfcinit:wfcr :      0.65s CPU      0.68s WALL (      15 calls)
     potinit      :      0.07s CPU      0.08s WALL (       1 calls)
     hinit0       :      0.37s CPU      0.39s WALL (       1 calls)

     Called by electrons:
     c_bands      :     21.72s CPU     22.32s WALL (       1 calls)
     v_of_rho     :      0.03s CPU      0.03s WALL (       1 calls)
     v_h          :      0.00s CPU      0.00s WALL (       1 calls)
     v_xc         :      0.03s CPU      0.03s WALL (       1 calls)
     newd         :      0.15s CPU      0.16s WALL (       1 calls)

     Called by c_bands:
     init_us_2    :      0.00s CPU      0.00s WALL (      15 calls)
     init_us_2:cp :      0.00s CPU      0.00s WALL (      15 calls)
     cegterg      :     18.08s CPU     18.51s WALL (      30 calls)

     Called by sum_band:

     Called by *egterg:
     cdiaghg      :      5.13s CPU      5.15s WALL (     492 calls)
     cegterg:over :      1.23s CPU      1.28s WALL (     477 calls)
     cegterg:upda :      0.75s CPU      0.76s WALL (     477 calls)
     cegterg:last :      1.81s CPU      1.82s WALL (     245 calls)
     h_psi        :      8.89s CPU      9.16s WALL (     522 calls)
     s_psi        :      0.50s CPU      0.51s WALL (     522 calls)
     g_psi        :      0.06s CPU      0.06s WALL (     477 calls)

     Called by h_psi:
     h_psi:calbec :      0.27s CPU      0.29s WALL (     522 calls)
     vloc_psi     :      8.02s CPU      8.26s WALL (     522 calls)
     add_vuspsi   :      0.53s CPU      0.54s WALL (     522 calls)

     General routines
     calbec       :      0.27s CPU      0.29s WALL (     522 calls)
     fft          :      0.01s CPU      0.03s WALL (      31 calls)
     ffts         :      0.00s CPU      0.00s WALL (       4 calls)
     fftw         :      5.61s CPU      5.91s WALL (  102580 calls)
     interpolate  :      0.00s CPU      0.00s WALL (       4 calls)
 
     Parallel routines
 
     PWSCF        :     23.08s CPU     24.30s WALL

 
   This run was terminated on:  15:33:15  11Nov2022            

=------------------------------------------------------------------------------=
   JOB DONE.
=------------------------------------------------------------------------------=
