 
             +---------------------------------------------------+
             |                                                   |
             |                   WANNIER90                       |
             |                                                   |
             +---------------------------------------------------+
             |                                                   |
             |        Welcome to the Maximally-Localized         |
             |        Generalized Wannier Functions code         |
             |            http://www.wannier.org                 |
             |                                                   |
             |                                                   |
             |  Wannier90 Developer Group:                       |
             |    Giovanni Pizzi    (EPFL)                       |
             |    Valerio Vitale    (Cambridge)                  |
             |    David Vanderbilt  (Rutgers University)         |
             |    Nicola Marzari    (EPFL)                       |
             |    Ivo Souza         (Universidad del Pais Vasco) |
             |    Arash A. Mostofi  (Imperial College London)    |
             |    Jonathan R. Yates (University of Oxford)       |
             |                                                   |
             |  For the full list of Wannier90 3.x authors,      |
             |  please check the code documentation and the      |
             |  README on the GitHub page of the code            |
             |                                                   |
             |                                                   |
             |  Please cite                                      |
             |                                                   |
             |  [ref] "Wannier90 as a community code:            |
             |        new features and applications",            |
             |        G. Pizzi et al., J. Phys. Cond. Matt. 32,  |
             |        165902 (2020).                             |
             |        http://doi.org/10.1088/1361-648X/ab51ff    |
             |                                                   |
             |  in any publications arising from the use of      |
             |  this code. For the method please cite            |
             |                                                   |
             |  [ref] "Maximally Localized Generalised Wannier   |
             |         Functions for Composite Energy Bands"     |
             |         N. Marzari and D. Vanderbilt              |
             |         Phys. Rev. B 56 12847 (1997)              |
             |                                                   |
             |  [ref] "Maximally Localized Wannier Functions     |
             |         for Entangled Energy Bands"               |
             |         I. Souza, N. Marzari and D. Vanderbilt    |
             |         Phys. Rev. B 65 035109 (2001)             |
             |                                                   |
             |                                                   |
             | Copyright (c) 1996-2020                           |
             |        The Wannier90 Developer Group and          |
             |        individual contributors                    |
             |                                                   |
             |      Release: 3.1.0        5th March    2020      |
             |                                                   |
             | This program is free software; you can            |
             | redistribute it and/or modify it under the terms  |
             | of the GNU General Public License as published by |
             | the Free Software Foundation; either version 2 of |
             | the License, or (at your option) any later version|
             |                                                   |
             | This program is distributed in the hope that it   |
             | will be useful, but WITHOUT ANY WARRANTY; without |
             | even the implied warranty of MERCHANTABILITY or   |
             | FITNESS FOR A PARTICULAR PURPOSE. See the GNU     |
             | General Public License for more details.          |
             |                                                   |
             | You should have received a copy of the GNU General|
             | Public License along with this program; if not,   |
             | write to the Free Software Foundation, Inc.,      |
             | 675 Mass Ave, Cambridge, MA 02139, USA.           |
             |                                                   |
             +---------------------------------------------------+
             |    Execution started on 18Apr2023 at 19:17:41     |
             +---------------------------------------------------+
 
 ******************************************************************************
 * -> Using CODATA 2006 constant values                                       *
 *    (http://physics.nist.gov/cuu/Constants/index.html)                      *
 * -> Using Bohr value from CODATA                                            *
 ******************************************************************************
 

 Running in parallel on   4 CPUs

 
                                    ------
                                    SYSTEM
                                    ------
 
                              Lattice Vectors (Ang)
                    a_1     2.728143   0.000000   0.000000
                    a_2     0.000000   2.728143   0.000000
                    a_3     0.000000   0.000000   3.778984
 
                   Unit Cell Volume:      28.12609  (Ang^3)
 
                        Reciprocal-Space Vectors (Ang^-1)
                    b_1     2.303100   0.000000   0.000000
                    b_2     0.000000   2.303100   0.000000
                    b_3     0.000000   0.000000   1.662665
  
 *----------------------------------------------------------------------------*
 |   Site       Fractional Coordinate          Cartesian Coordinate (Ang)     |
 +----------------------------------------------------------------------------+
 | Fe   1   0.00000   0.00000   0.00000   |    0.00000   0.00000   0.00000    |
 | Pt   1   0.50000   0.50000   0.50000   |    1.36407   1.36407   1.88949    |
 *----------------------------------------------------------------------------*
                                ------------
                                K-POINT GRID
                                ------------
  
             Grid size =  9 x  9 x  6      Total points =  486
  
  
 *---------------------------------- MAIN ------------------------------------*
 |  Number of Wannier Functions               :                36             |
 |  Number of Objective Wannier Functions     :                36             |
 |  Number of input Bloch states              :                90             |
 |  Output verbosity (1=low, 5=high)          :                 1             |
 |  Timing Level (1=low, 5=high)              :                 1             |
 |  Optimisation (0=memory, 3=speed)          :                 3             |
 |  Length Unit                               :               Ang             |
 |  Post-processing setup (write *.nnkp)      :                 F             |
 |  Using Gamma-only branch of algorithms     :                 F             |
 *----------------------------------------------------------------------------*
 *------------------------------- WANNIERISE ---------------------------------*
 |  Total number of iterations                :                 0             |
 |  Number of CG steps before reset           :                 5             |
 |  Trial step length for line search         :             2.000             |
 |  Convergence tolerence                     :         0.100E-09             |
 |  Convergence window                        :                -1             |
 |  Iterations between writing output         :                 1             |
 |  Iterations between backing up to disk     :               100             |
 |  Write r^2_nm to file                      :                 F             |
 |  Write xyz WF centres to file              :                 F             |
 |  Write on-site energies <0n|H|0n> to file  :                 F             |
 |  Use guiding centre to control phases      :                 F             |
 |  Use phases for initial projections        :                 F             |
 *----------------------------------------------------------------------------*
 *------------------------------- DISENTANGLE --------------------------------*
 |  Using band disentanglement                :                 T             |
 |  Total number of iterations                :               200             |
 |  Mixing ratio                              :             0.500             |
 |  Convergence tolerence                     :         1.000E-10             |
 |  Convergence window                        :                 3             |
 *----------------------------------------------------------------------------*
 *-------------------------------- PLOTTING ----------------------------------*
 |  Plotting interpolated bandstructure       :                 T             |
 |   Number of K-path sections                :                 9             |
 |   Divisions along first K-path section     :               100             |
 |   Output format                            :           gnuplot             |
 |   Output mode                              :               s-k             |
 *----------------------------------------------------------------------------*
 |   K-space path sections:                                                   |
 |    From: G       0.000  0.000  0.000     To: X       0.000  0.500  0.000   |
 |    From: X       0.000  0.500  0.000     To: M       0.500  0.500  0.000   |
 |    From: M       0.500  0.500  0.000     To: G       0.000  0.000  0.000   |
 |    From: G       0.000  0.000  0.000     To: Z       0.000  0.000  0.500   |
 |    From: Z       0.000  0.000  0.500     To: R       0.000  0.500  0.500   |
 |    From: R       0.000  0.500  0.500     To: A       0.500  0.500  0.500   |
 |    From: A       0.500  0.500  0.500     To: Z       0.000  0.000  0.500   |
 |    From: X       0.000  0.500  0.000     To: R       0.000  0.500  0.500   |
 |    From: M       0.500  0.500  0.000     To: A       0.500  0.500  0.500   |
 *----------------------------------------------------------------------------*
 |  Plotting Hamiltonian in WF basis          :                 T             |
 *----------------------------------------------------------------------------*
 Time to read parameters        0.045 (sec)

 *---------------------------------- K-MESH ----------------------------------*
 +----------------------------------------------------------------------------+
 |                    Distance to Nearest-Neighbour Shells                    |
 |                    ------------------------------------                    |
 |          Shell             Distance (Ang^-1)          Multiplicity         |
 |          -----             -----------------          ------------         |
 |             1                   0.255900                      4            |
 |             2                   0.277111                      2            |
 |             3                   0.361897                      4            |
 |             4                   0.377194                      8            |
 |             5                   0.455807                      8            |
 |             6                   0.511800                      4            |
 |             7                   0.554222                      2            |
 |             8                   0.572210                      8            |
 |             9                   0.582005                      8            |
 |            10                   0.610448                      8            |
 |            11                   0.635779                     16            |
 |            12                   0.661915                      8            |
 |            13                   0.723794                      4            |
 |            14                   0.754388                      8            |
 |            15                   0.767700                      4            |
 |            16                   0.775028                      8            |
 |            17                   0.796609                     16            |
 |            18                   0.809227                      8            |
 |            19                   0.816182                      8            |
 |            20                   0.831333                      2            |
 |            21                   0.855359                     16            |
 |            22                   0.869827                      8            |
 |            23                   0.906688                      8            |
 |            24                   0.911614                      8            |
 |            25                   0.922660                      8            |
 |            26                   0.946850                      8            |
 |            27                   0.963376                     16            |
 |            28                   0.976244                      8            |
 |            29                   0.980821                     16            |
 |            30                   1.009226                     16            |
 |            31                   1.023600                      4            |
 |            32                   1.055103                      8            |
 |            33                   1.060447                      8            |
 |            34                   1.076320                     16            |
 |            35                   1.085692                      4            |
 |            36                   1.090886                     16            |
 +----------------------------------------------------------------------------+
 | The b-vectors are chosen automatically                                     |
 | The following shells are used:   1,  2                                     |
 +----------------------------------------------------------------------------+
 |                        Shell   # Nearest-Neighbours                        |
 |                        -----   --------------------                        |
 |                          1               4                                 |
 |                          2               2                                 |
 +----------------------------------------------------------------------------+
 | Completeness relation is fully satisfied [Eq. (B1), PRB 56, 12847 (1997)]  |
 +----------------------------------------------------------------------------+
 |                  b_k Vectors (Ang^-1) and Weights (Ang^2)                  |
 |                  ----------------------------------------                  |
 |            No.         b_k(x)      b_k(y)      b_k(z)        w_b           |
 |            ---        --------------------------------     --------        |
 |             1         0.000000    0.255900    0.000000     7.635361        |
 |             2         0.000000   -0.255900    0.000000     7.635361        |
 |             3         0.255900    0.000000    0.000000     7.635361        |
 |             4        -0.255900    0.000000    0.000000     7.635361        |
 |             5         0.000000    0.000000    0.277111     6.511228        |
 |             6         0.000000    0.000000   -0.277111     6.511228        |
 +----------------------------------------------------------------------------+
 |                           b_k Directions (Ang^-1)                          |
 |                           -----------------------                          |
 |            No.           x           y           z                         |
 |            ---        --------------------------------                     |
 |             1         0.000000    0.255900    0.000000                     |
 |             2         0.255900    0.000000    0.000000                     |
 |             3         0.000000    0.000000    0.277111                     |
 +----------------------------------------------------------------------------+
  
 Time to get kmesh              0.513 (sec)
 *============================================================================*
 |                              MEMORY ESTIMATE                               |
 |         Maximum RAM allocated during each phase of the calculation         |
 *============================================================================*
 |                        Disentanglement          539.76 Mb                  |
 |                            Wannierise:          182.44 Mb                  |
 |                          plot_wannier:          182.44 Mb                  |
 *----------------------------------------------------------------------------*
  
 Starting a new Wannier90 calculation ...


 Reading overlaps from pwscf.mmn    : Mmn created by mmn.py

 Reading projections from pwscf.amn : Amn created by amn.py

 Time to read overlaps         12.226 (sec)

 *------------------------------- DISENTANGLE --------------------------------*
 +----------------------------------------------------------------------------+
 |                              Energy  Windows                               |
 |                              ---------------                               |
 |                   Outer:    7.50059  to   80.47297  (eV)                   |
 |                   Inner: **********  to   18.04120  (eV)                   |
 +----------------------------------------------------------------------------+
   Number of target bands to extract:   36

                   Unitarised projection of Wannier functions                  
                   ------------------------------------------                  
   A_mn = <psi_m|g_n> --> S = A.A^+ --> U = S^-1/2.A
   In dis_project... done
   Using an inner window (linner = T)
   In dis_proj_froz... done

                   Extraction of optimally-connected subspace                  
                   ------------------------------------------                  
 +---------------------------------------------------------------------+<-- DIS
 |  Iter     Omega_I(i-1)      Omega_I(i)      Delta (frac.)    Time   |<-- DIS
 +---------------------------------------------------------------------+<-- DIS
       1      28.13271340      25.76790098       9.177E-02      0.00    <-- DIS
       2      26.61174125      25.10246166       6.012E-02      0.36    <-- DIS
       3      25.75825388      24.64129184       4.533E-02      0.71    <-- DIS
       4      25.12291137      24.28715194       3.441E-02      1.09    <-- DIS
       5      24.64412877      24.00485975       2.663E-02      1.45    <-- DIS
       6      24.27527121      23.77408241       2.108E-02      1.81    <-- DIS
       7      23.98418533      23.58174972       1.707E-02      2.17    <-- DIS
       8      23.74916296      23.41899617       1.410E-02      2.52    <-- DIS
       9      23.55551071      23.27956201       1.185E-02      2.88    <-- DIS
      10      23.39314589      23.15887991       1.012E-02      3.23    <-- DIS
      11      23.25501122      23.05352510       8.740E-03      3.59    <-- DIS
      12      23.13605251      22.96087018       7.630E-03      3.94    <-- DIS
      13      23.03256276      22.87886035       6.718E-03      4.30    <-- DIS
      14      22.94175911      22.80586223       5.959E-03      4.65    <-- DIS
      15      22.86150680      22.74055916       5.319E-03      5.00    <-- DIS
      16      22.79013604      22.68187694       4.773E-03      5.36    <-- DIS
      17      22.72631814      22.62892990       4.304E-03      5.71    <-- DIS
      18      22.66897993      22.58098098       3.897E-03      6.06    <-- DIS
      19      22.61724332      22.53741167       3.542E-03      6.42    <-- DIS
      20      22.57038180      22.49769911       3.231E-03      6.77    <-- DIS
      21      22.52778831      22.46139828       2.956E-03      7.12    <-- DIS
      22      22.48895128      22.42812808       2.712E-03      7.48    <-- DIS
      23      22.45343634      22.39756032       2.495E-03      7.83    <-- DIS
      24      22.42087210      22.36941088       2.301E-03      8.18    <-- DIS
      25      22.39093915      22.34343265       2.126E-03      8.54    <-- DIS
      26      22.36336119      22.31940972       1.969E-03      8.89    <-- DIS
      27      22.33789806      22.29715268       1.827E-03      9.25    <-- DIS
      28      22.31433999      22.27649470       1.699E-03      9.60    <-- DIS
      29      22.29250302      22.25728837       1.582E-03      9.95    <-- DIS
      30      22.27222512      22.23940291       1.476E-03     10.31    <-- DIS
      31      22.25336309      22.22272202       1.379E-03     10.66    <-- DIS
      32      22.23578994      22.20714190       1.290E-03     11.02    <-- DIS
      33      22.21939266      22.19256970       1.209E-03     11.37    <-- DIS
      34      22.20407039      22.17892210       1.134E-03     11.73    <-- DIS
      35      22.18973290      22.16612419       1.065E-03     12.08    <-- DIS
      36      22.17629918      22.15410843       1.002E-03     12.44    <-- DIS
      37      22.16369638      22.14281382       9.431E-04     12.79    <-- DIS
      38      22.15185881      22.13218512       8.889E-04     13.15    <-- DIS
      39      22.14072708      22.12217224       8.387E-04     13.50    <-- DIS
      40      22.13024745      22.11272966       7.922E-04     13.86    <-- DIS
      41      22.12037112      22.10381592       7.490E-04     14.21    <-- DIS
      42      22.11105373      22.09539323       7.088E-04     14.57    <-- DIS
      43      22.10225491      22.08742707       6.713E-04     14.92    <-- DIS
      44      22.09393778      22.07988584       6.364E-04     15.28    <-- DIS
      45      22.08606868      22.07274061       6.038E-04     15.63    <-- DIS
      46      22.07861679      22.06596483       5.734E-04     15.99    <-- DIS
      47      22.07155387      22.05953411       5.449E-04     16.34    <-- DIS
      48      22.06485397      22.05342599       5.182E-04     16.69    <-- DIS
      49      22.05849328      22.04761982       4.932E-04     17.05    <-- DIS
      50      22.05244986      22.04209653       4.697E-04     17.40    <-- DIS
      51      22.04670349      22.03683851       4.477E-04     17.76    <-- DIS
      52      22.04123554      22.03182949       4.269E-04     18.11    <-- DIS
      53      22.03602878      22.02705441       4.074E-04     18.46    <-- DIS
      54      22.03106727      22.02249933       3.891E-04     18.82    <-- DIS
      55      22.02633628      22.01815130       3.717E-04     19.17    <-- DIS
      56      22.02182214      22.01399831       3.554E-04     19.53    <-- DIS
      57      22.01751216      22.01002921       3.400E-04     19.93    <-- DIS
      58      22.01339458      22.00623361       3.254E-04     20.34    <-- DIS
      59      22.00945844      22.00260186       3.116E-04     20.74    <-- DIS
      60      22.00569357      21.99912493       2.986E-04     21.14    <-- DIS
      61      22.00209048      21.99579444       2.862E-04     21.54    <-- DIS
      62      21.99864032      21.99260254       2.745E-04     21.91    <-- DIS
      63      21.99533484      21.98954191       2.634E-04     22.26    <-- DIS
      64      21.99216634      21.98660569       2.529E-04     22.62    <-- DIS
      65      21.98912762      21.98378747       2.429E-04     22.98    <-- DIS
      66      21.98621193      21.98108125       2.334E-04     23.33    <-- DIS
      67      21.98341298      21.97848140       2.244E-04     23.69    <-- DIS
      68      21.98072485      21.97598263       2.158E-04     24.04    <-- DIS
      69      21.97814200      21.97357999       2.076E-04     24.39    <-- DIS
      70      21.97565924      21.97126882       1.998E-04     24.75    <-- DIS
      71      21.97327166      21.96904474       1.924E-04     25.10    <-- DIS
      72      21.97097469      21.96690362       1.853E-04     25.46    <-- DIS
      73      21.96876401      21.96484158       1.786E-04     25.81    <-- DIS
      74      21.96663555      21.96285498       1.721E-04     26.17    <-- DIS
      75      21.96458548      21.96094035       1.660E-04     26.52    <-- DIS
      76      21.96261019      21.95909445       1.601E-04     26.87    <-- DIS
      77      21.96070629      21.95731420       1.545E-04     27.23    <-- DIS
      78      21.95887055      21.95559669       1.491E-04     27.58    <-- DIS
      79      21.95709995      21.95393920       1.440E-04     27.94    <-- DIS
      80      21.95539161      21.95233911       1.391E-04     28.29    <-- DIS
      81      21.95374283      21.95079397       1.343E-04     28.68    <-- DIS
      82      21.95215103      21.94930145       1.298E-04     29.08    <-- DIS
      83      21.95061379      21.94785935       1.255E-04     29.45    <-- DIS
      84      21.94912880      21.94646557       1.214E-04     29.81    <-- DIS
      85      21.94769388      21.94511813       1.174E-04     30.22    <-- DIS
      86      21.94630696      21.94381513       1.136E-04     30.58    <-- DIS
      87      21.94496606      21.94255480       1.099E-04     30.93    <-- DIS
      88      21.94366934      21.94133542       1.064E-04     31.29    <-- DIS
      89      21.94241500      21.94015538       1.030E-04     31.64    <-- DIS
      90      21.94120137      21.93901313       9.974E-05     32.00    <-- DIS
      91      21.94002684      21.93790722       9.662E-05     32.35    <-- DIS
      92      21.93888988      21.93683623       9.362E-05     32.71    <-- DIS
      93      21.93778904      21.93579885       9.073E-05     33.06    <-- DIS
      94      21.93672293      21.93479379       8.795E-05     33.42    <-- DIS
      95      21.93569023      21.93381985       8.527E-05     33.77    <-- DIS
      96      21.93468968      21.93287588       8.270E-05     34.12    <-- DIS
      97      21.93372008      21.93196076       8.022E-05     34.48    <-- DIS
      98      21.93278029      21.93107345       7.783E-05     34.86    <-- DIS
      99      21.93186920      21.93021293       7.552E-05     35.26    <-- DIS
     100      21.93098576      21.92937824       7.330E-05     35.66    <-- DIS
     101      21.93012899      21.92856847       7.116E-05     36.06    <-- DIS
     102      21.92929791      21.92778272       6.910E-05     36.47    <-- DIS
     103      21.92849163      21.92702015       6.711E-05     36.87    <-- DIS
     104      21.92770925      21.92627996       6.519E-05     37.27    <-- DIS
     105      21.92694994      21.92556137       6.333E-05     37.67    <-- DIS
     106      21.92621289      21.92486364       6.154E-05     38.07    <-- DIS
     107      21.92549734      21.92418605       5.981E-05     38.45    <-- DIS
     108      21.92480255      21.92352792       5.814E-05     38.80    <-- DIS
     109      21.92412781      21.92288859       5.653E-05     39.16    <-- DIS
     110      21.92347243      21.92226745       5.497E-05     39.51    <-- DIS
     111      21.92283578      21.92166387       5.346E-05     39.87    <-- DIS
     112      21.92221722      21.92107729       5.200E-05     40.22    <-- DIS
     113      21.92161615      21.92050714       5.059E-05     40.57    <-- DIS
     114      21.92103199      21.91995289       4.923E-05     40.93    <-- DIS
     115      21.92046419      21.91941402       4.791E-05     41.28    <-- DIS
     116      21.91991222      21.91889004       4.663E-05     41.63    <-- DIS
     117      21.91937556      21.91838047       4.540E-05     41.99    <-- DIS
     118      21.91885372      21.91788485       4.420E-05     42.34    <-- DIS
     119      21.91834622      21.91740275       4.305E-05     42.69    <-- DIS
     120      21.91785262      21.91693372       4.193E-05     43.05    <-- DIS
     121      21.91737246      21.91647737       4.084E-05     43.40    <-- DIS
     122      21.91690533      21.91603331       3.979E-05     43.75    <-- DIS
     123      21.91645082      21.91560114       3.877E-05     44.11    <-- DIS
     124      21.91600853      21.91518051       3.778E-05     44.46    <-- DIS
     125      21.91557809      21.91477105       3.683E-05     44.81    <-- DIS
     126      21.91515913      21.91437244       3.590E-05     45.17    <-- DIS
     127      21.91475130      21.91398433       3.500E-05     45.52    <-- DIS
     128      21.91435427      21.91360642       3.413E-05     45.87    <-- DIS
     129      21.91396769      21.91323840       3.328E-05     46.23    <-- DIS
     130      21.91359126      21.91287996       3.246E-05     46.58    <-- DIS
     131      21.91322467      21.91253084       3.166E-05     46.94    <-- DIS
     132      21.91286764      21.91219074       3.089E-05     47.29    <-- DIS
     133      21.91251986      21.91185941       3.014E-05     47.64    <-- DIS
     134      21.91218108      21.91153658       2.941E-05     48.00    <-- DIS
     135      21.91185102      21.91122202       2.871E-05     48.35    <-- DIS
     136      21.91152942      21.91091547       2.802E-05     48.71    <-- DIS
     137      21.91121605      21.91061671       2.735E-05     49.09    <-- DIS
     138      21.91091066      21.91032551       2.671E-05     49.47    <-- DIS
     139      21.91061302      21.91004165       2.608E-05     49.84    <-- DIS
     140      21.91032291      21.90976493       2.547E-05     50.21    <-- DIS
     141      21.91004011      21.90949515       2.487E-05     50.57    <-- DIS
     142      21.90976441      21.90923209       2.430E-05     50.98    <-- DIS
     143      21.90949560      21.90897559       2.374E-05     51.34    <-- DIS
     144      21.90923351      21.90872544       2.319E-05     51.69    <-- DIS
     145      21.90897792      21.90848147       2.266E-05     52.05    <-- DIS
     146      21.90872867      21.90824352       2.214E-05     52.40    <-- DIS
     147      21.90848557      21.90801141       2.164E-05     52.76    <-- DIS
     148      21.90824846      21.90778498       2.116E-05     53.11    <-- DIS
     149      21.90801715      21.90756407       2.068E-05     53.47    <-- DIS
     150      21.90779151      21.90734854       2.022E-05     53.82    <-- DIS
     151      21.90757136      21.90713823       1.977E-05     54.18    <-- DIS
     152      21.90735656      21.90693301       1.933E-05     54.53    <-- DIS
     153      21.90714695      21.90673273       1.891E-05     54.89    <-- DIS
     154      21.90694241      21.90653726       1.849E-05     55.24    <-- DIS
     155      21.90674279      21.90634647       1.809E-05     55.60    <-- DIS
     156      21.90654795      21.90616024       1.770E-05     55.95    <-- DIS
     157      21.90635778      21.90597844       1.732E-05     56.31    <-- DIS
     158      21.90617213      21.90580095       1.694E-05     56.66    <-- DIS
     159      21.90599090      21.90562766       1.658E-05     57.02    <-- DIS
     160      21.90581396      21.90545846       1.623E-05     57.37    <-- DIS
     161      21.90564120      21.90529325       1.588E-05     57.73    <-- DIS
     162      21.90547251      21.90513190       1.555E-05     58.08    <-- DIS
     163      21.90530778      21.90497433       1.522E-05     58.43    <-- DIS
     164      21.90514691      21.90482044       1.490E-05     58.79    <-- DIS
     165      21.90498979      21.90467012       1.459E-05     59.14    <-- DIS
     166      21.90483632      21.90452329       1.429E-05     59.50    <-- DIS
     167      21.90468642      21.90437985       1.400E-05     59.85    <-- DIS
     168      21.90453999      21.90423972       1.371E-05     60.21    <-- DIS
     169      21.90439693      21.90410281       1.343E-05     60.56    <-- DIS
     170      21.90425717      21.90396904       1.315E-05     60.92    <-- DIS
     171      21.90412061      21.90383833       1.289E-05     61.27    <-- DIS
     172      21.90398717      21.90371060       1.263E-05     61.63    <-- DIS
     173      21.90385678      21.90358578       1.237E-05     61.99    <-- DIS
     174      21.90372936      21.90346378       1.212E-05     62.36    <-- DIS
     175      21.90360482      21.90334455       1.188E-05     62.71    <-- DIS
     176      21.90348310      21.90322800       1.165E-05     63.08    <-- DIS
     177      21.90336413      21.90311408       1.142E-05     63.45    <-- DIS
     178      21.90324783      21.90300271       1.119E-05     63.81    <-- DIS
     179      21.90313415      21.90289383       1.097E-05     64.17    <-- DIS
     180      21.90302300      21.90278739       1.076E-05     64.52    <-- DIS
     181      21.90291434      21.90268331       1.055E-05     64.88    <-- DIS
     182      21.90280810      21.90258155       1.034E-05     65.24    <-- DIS
     183      21.90270421      21.90248203       1.014E-05     65.59    <-- DIS
     184      21.90260262      21.90238472       9.949E-06     65.95    <-- DIS
     185      21.90250328      21.90228955       9.758E-06     66.30    <-- DIS
     186      21.90240612      21.90219647       9.572E-06     66.66    <-- DIS
     187      21.90231110      21.90210543       9.390E-06     67.01    <-- DIS
     188      21.90221816      21.90201638       9.213E-06     67.37    <-- DIS
     189      21.90212725      21.90192928       9.039E-06     67.72    <-- DIS
     190      21.90203832      21.90184406       8.869E-06     68.08    <-- DIS
     191      21.90195132      21.90176070       8.703E-06     68.43    <-- DIS
     192      21.90186621      21.90167914       8.541E-06     68.78    <-- DIS
     193      21.90178294      21.90159934       8.382E-06     69.14    <-- DIS
     194      21.90170146      21.90152127       8.227E-06     69.49    <-- DIS
     195      21.90162174      21.90144486       8.076E-06     69.85    <-- DIS
     196      21.90154373      21.90137010       7.928E-06     70.20    <-- DIS
     197      21.90146738      21.90129694       7.783E-06     70.56    <-- DIS
     198      21.90139267      21.90122533       7.641E-06     70.91    <-- DIS
     199      21.90131955      21.90115525       7.502E-06     71.27    <-- DIS
     200      21.90124799      21.90108665       7.366E-06     71.62    <-- DIS

     <<< Warning: Maximum number of disentanglement iterations reached >>>
          <<< Disentanglement convergence criteria not satisfied >>>

        Final Omega_I    21.90108665 (Ang^2)

 +----------------------------------------------------------------------------+

 Time to disentangle bands     75.900 (sec)

 Writing checkpoint file pwscf.chk... done

 
 *------------------------------- WANNIERISE ---------------------------------*
 +--------------------------------------------------------------------+<-- CONV
 | Iter  Delta Spread     RMS Gradient      Spread (Ang^2)      Time  |<-- CONV
 +--------------------------------------------------------------------+<-- CONV
 
 ------------------------------------------------------------------------------
 Initial State
  WF centre and spread    1  (  0.000000,  0.000000,  0.000000 )     1.39375307
  WF centre and spread    2  (  0.000000,  0.000000,  0.000000 )     1.39375307
  WF centre and spread    3  (  0.000000,  0.000000,  0.000000 )     1.37836033
  WF centre and spread    4  (  0.000000,  0.000000,  0.000000 )     1.37836033
  WF centre and spread    5  (  0.000000,  0.000000,  0.000000 )     1.38655090
  WF centre and spread    6  (  0.000000,  0.000000,  0.000000 )     1.38655090
  WF centre and spread    7  (  0.000000,  0.000000,  0.000000 )     1.38655081
  WF centre and spread    8  (  0.000000,  0.000000,  0.000000 )     1.38655081
  WF centre and spread    9  (  0.000000,  0.000000,  0.000000 )     0.51350071
  WF centre and spread   10  (  0.000000,  0.000000,  0.000000 )     0.51350071
  WF centre and spread   11  (  0.000000,  0.000000,  0.000000 )     0.48047003
  WF centre and spread   12  (  0.000000,  0.000000,  0.000000 )     0.48047003
  WF centre and spread   13  (  0.000000,  0.000000,  0.000000 )     0.48047003
  WF centre and spread   14  (  0.000000,  0.000000,  0.000000 )     0.48047003
  WF centre and spread   15  (  0.000000,  0.000000,  0.000000 )     0.50606148
  WF centre and spread   16  (  0.000000,  0.000000,  0.000000 )     0.50606148
  WF centre and spread   17  (  0.000000,  0.000000,  0.000000 )     0.51191370
  WF centre and spread   18  (  0.000000,  0.000000,  0.000000 )     0.51191370
  WF centre and spread   19  (  1.364072,  1.364071,  1.889492 )     1.65982227
  WF centre and spread   20  (  1.364072,  1.364072,  1.889492 )     1.65982227
  WF centre and spread   21  (  1.364072,  1.364071,  1.889492 )     1.64772754
  WF centre and spread   22  (  1.364072,  1.364072,  1.889492 )     1.64772754
  WF centre and spread   23  (  1.364071,  1.364071,  1.889492 )     1.63722017
  WF centre and spread   24  (  1.364072,  1.364072,  1.889492 )     1.63722017
  WF centre and spread   25  (  1.364072,  1.364072,  1.889492 )     1.63722080
  WF centre and spread   26  (  1.364071,  1.364071,  1.889492 )     1.63722080
  WF centre and spread   27  (  1.364072,  1.364071,  1.889492 )     0.88222959
  WF centre and spread   28  (  1.364072,  1.364072,  1.889492 )     0.88222959
  WF centre and spread   29  (  1.364072,  1.364071,  1.889492 )     0.86003526
  WF centre and spread   30  (  1.364072,  1.364072,  1.889492 )     0.86003526
  WF centre and spread   31  (  1.364072,  1.364071,  1.889492 )     0.86003528
  WF centre and spread   32  (  1.364072,  1.364072,  1.889492 )     0.86003528
  WF centre and spread   33  (  1.364072,  1.364071,  1.889492 )     0.83625988
  WF centre and spread   34  (  1.364072,  1.364072,  1.889492 )     0.83625988
  WF centre and spread   35  (  1.364072,  1.364071,  1.889492 )     0.88296420
  WF centre and spread   36  (  1.364072,  1.364072,  1.889492 )     0.88296420
  Sum of centres and spreads ( 24.553287, 24.553287, 34.010856 )    37.88229211
 
      0     0.379E+02     0.0000000000       37.8822920929      72.71  <-- CONV
        O_D=      0.0001497 O_OD=     15.9810557 O_TOT=     37.8822921 <-- SPRD
 ------------------------------------------------------------------------------
 Final State
  WF centre and spread    1  (  0.000000,  0.000000,  0.000000 )     1.39375307
  WF centre and spread    2  (  0.000000,  0.000000,  0.000000 )     1.39375307
  WF centre and spread    3  (  0.000000,  0.000000,  0.000000 )     1.37836033
  WF centre and spread    4  (  0.000000,  0.000000,  0.000000 )     1.37836033
  WF centre and spread    5  (  0.000000,  0.000000,  0.000000 )     1.38655090
  WF centre and spread    6  (  0.000000,  0.000000,  0.000000 )     1.38655090
  WF centre and spread    7  (  0.000000,  0.000000,  0.000000 )     1.38655081
  WF centre and spread    8  (  0.000000,  0.000000,  0.000000 )     1.38655081
  WF centre and spread    9  (  0.000000,  0.000000,  0.000000 )     0.51350071
  WF centre and spread   10  (  0.000000,  0.000000,  0.000000 )     0.51350071
  WF centre and spread   11  (  0.000000,  0.000000,  0.000000 )     0.48047003
  WF centre and spread   12  (  0.000000,  0.000000,  0.000000 )     0.48047003
  WF centre and spread   13  (  0.000000,  0.000000,  0.000000 )     0.48047003
  WF centre and spread   14  (  0.000000,  0.000000,  0.000000 )     0.48047003
  WF centre and spread   15  (  0.000000,  0.000000,  0.000000 )     0.50606148
  WF centre and spread   16  (  0.000000,  0.000000,  0.000000 )     0.50606148
  WF centre and spread   17  (  0.000000,  0.000000,  0.000000 )     0.51191370
  WF centre and spread   18  (  0.000000,  0.000000,  0.000000 )     0.51191370
  WF centre and spread   19  (  1.364072,  1.364071,  1.889492 )     1.65982227
  WF centre and spread   20  (  1.364072,  1.364072,  1.889492 )     1.65982227
  WF centre and spread   21  (  1.364072,  1.364071,  1.889492 )     1.64772754
  WF centre and spread   22  (  1.364072,  1.364072,  1.889492 )     1.64772754
  WF centre and spread   23  (  1.364071,  1.364071,  1.889492 )     1.63722017
  WF centre and spread   24  (  1.364072,  1.364072,  1.889492 )     1.63722017
  WF centre and spread   25  (  1.364072,  1.364072,  1.889492 )     1.63722080
  WF centre and spread   26  (  1.364071,  1.364071,  1.889492 )     1.63722080
  WF centre and spread   27  (  1.364072,  1.364071,  1.889492 )     0.88222959
  WF centre and spread   28  (  1.364072,  1.364072,  1.889492 )     0.88222959
  WF centre and spread   29  (  1.364072,  1.364071,  1.889492 )     0.86003526
  WF centre and spread   30  (  1.364072,  1.364072,  1.889492 )     0.86003526
  WF centre and spread   31  (  1.364072,  1.364071,  1.889492 )     0.86003528
  WF centre and spread   32  (  1.364072,  1.364072,  1.889492 )     0.86003528
  WF centre and spread   33  (  1.364072,  1.364071,  1.889492 )     0.83625988
  WF centre and spread   34  (  1.364072,  1.364072,  1.889492 )     0.83625988
  WF centre and spread   35  (  1.364072,  1.364071,  1.889492 )     0.88296420
  WF centre and spread   36  (  1.364072,  1.364072,  1.889492 )     0.88296420
  Sum of centres and spreads ( 24.553287, 24.553287, 34.010856 )    37.88229211
 
         Spreads (Ang^2)       Omega I      =    21.901086654
        ================       Omega D      =     0.000149733
                               Omega OD     =    15.981055705
    Final Spread (Ang^2)       Omega Total  =    37.882292093
 ------------------------------------------------------------------------------
 Time for wannierise            0.124 (sec)

 Writing checkpoint file pwscf.chk... done

 *---------------------------------------------------------------------------*
 |                               PLOTTING                                    |
 *---------------------------------------------------------------------------*
 
 
 Calculating interpolated band-structure
 
 Time to calculate interpolated band structure      25.837 (sec)
 
 Time for plotting             85.461 (sec)
 Total Execution Time         174.388 (sec)

 *===========================================================================*
 |                             TIMING INFORMATION                            |
 *===========================================================================*
 |    Tag                                                Ncalls      Time (s)|
 |---------------------------------------------------------------------------|
 |kmesh: get                                        :         1         0.513|
 |overlap: allocate                                 :         1         0.004|
 |overlap: read                                     :         1        12.220|
 |dis: main                                         :         1        75.900|
 |wann: main                                        :         1         0.124|
 |plot: main                                        :         1        85.461|
 *---------------------------------------------------------------------------*
 
 All done: wannier90 exiting
