
     Program PROJWFC v.7.0 starts on  2Aug2023 at 15: 7:49 

     This program is part of the open-source Quantum ESPRESSO suite
     for quantum simulation of materials; please cite
         "P. Giannozzi et al., J. Phys.:Condens. Matter 21 395502 (2009);
         "P. Giannozzi et al., J. Phys.:Condens. Matter 29 465901 (2017);
         "P. Giannozzi et al., J. Chem. Phys. 152 154105 (2020);
          URL http://www.quantum-espresso.org", 
     in publications or presentations arising from this work. More details at
     http://www.quantum-espresso.org/quote

     Parallel version (MPI), running on    22 processors

     MPI processes distributed on     1 nodes
     R & G space division:  proc/nbgrp/npool/nimage =      22
     188208 MiB available memory on the printing compute node when the environment starts
 

     Reading xml data from directory:

     ./work/pwscf.save/
     file Pt.rel-pbe-n-rrkjus_psl.0.1.UPF: wavefunction(s)  5D renormalized

     IMPORTANT: XC functional enforced from input :
     Exchange-correlation= PBE
                           (   1   4   3   4   0   0   0)
     Any further DFT definition will be discarded
     Please, verify this is what you really want

 
     Parallelization info
     --------------------
     sticks:   dense  smooth     PW     G-vecs:    dense   smooth      PW
     Min          74      24      8                 3184      596     102
     Max          75      25      9                 3189      601     104
     Sum        1649     545    177                70151    13173    2261
 
     Using Slab Decomposition
 

     Check: negative core charge=   -0.000005

     Gaussian broadening (read from input): ngauss,degauss=   0    0.010000


     Calling projwave .... 

     Subspace diagonalization in iterative solution of the eigenvalue problem:
     a serial algorithm will be used

 
  Problem Sizes 
  natomwfc =           44
  nbnd     =           98
  nkstot   =           60
  npwx     =           76
  nkb      =           68
 

     Atomic states used for projection
     (read from pseudopotential files):

     state #   1: atom   1 (Fe ), wfc  1 (l=0 j=0.5 m_j=-0.5)
     state #   2: atom   1 (Fe ), wfc  1 (l=0 j=0.5 m_j= 0.5)
     state #   3: atom   1 (Fe ), wfc  2 (l=0 j=0.5 m_j=-0.5)
     state #   4: atom   1 (Fe ), wfc  2 (l=0 j=0.5 m_j= 0.5)
     state #   5: atom   1 (Fe ), wfc  3 (l=1 j=0.5 m_j=-0.5)
     state #   6: atom   1 (Fe ), wfc  3 (l=1 j=0.5 m_j= 0.5)
     state #   7: atom   1 (Fe ), wfc  4 (l=1 j=1.5 m_j=-1.5)
     state #   8: atom   1 (Fe ), wfc  4 (l=1 j=1.5 m_j=-0.5)
     state #   9: atom   1 (Fe ), wfc  4 (l=1 j=1.5 m_j= 0.5)
     state #  10: atom   1 (Fe ), wfc  4 (l=1 j=1.5 m_j= 1.5)
     state #  11: atom   1 (Fe ), wfc  5 (l=1 j=0.5 m_j=-0.5)
     state #  12: atom   1 (Fe ), wfc  5 (l=1 j=0.5 m_j= 0.5)
     state #  13: atom   1 (Fe ), wfc  6 (l=1 j=1.5 m_j=-1.5)
     state #  14: atom   1 (Fe ), wfc  6 (l=1 j=1.5 m_j=-0.5)
     state #  15: atom   1 (Fe ), wfc  6 (l=1 j=1.5 m_j= 0.5)
     state #  16: atom   1 (Fe ), wfc  6 (l=1 j=1.5 m_j= 1.5)
     state #  17: atom   1 (Fe ), wfc  7 (l=2 j=1.5 m_j=-1.5)
     state #  18: atom   1 (Fe ), wfc  7 (l=2 j=1.5 m_j=-0.5)
     state #  19: atom   1 (Fe ), wfc  7 (l=2 j=1.5 m_j= 0.5)
     state #  20: atom   1 (Fe ), wfc  7 (l=2 j=1.5 m_j= 1.5)
     state #  21: atom   1 (Fe ), wfc  8 (l=2 j=2.5 m_j=-2.5)
     state #  22: atom   1 (Fe ), wfc  8 (l=2 j=2.5 m_j=-1.5)
     state #  23: atom   1 (Fe ), wfc  8 (l=2 j=2.5 m_j=-0.5)
     state #  24: atom   1 (Fe ), wfc  8 (l=2 j=2.5 m_j= 0.5)
     state #  25: atom   1 (Fe ), wfc  8 (l=2 j=2.5 m_j= 1.5)
     state #  26: atom   1 (Fe ), wfc  8 (l=2 j=2.5 m_j= 2.5)
     state #  27: atom   2 (Pt ), wfc  1 (l=0 j=0.5 m_j=-0.5)
     state #  28: atom   2 (Pt ), wfc  1 (l=0 j=0.5 m_j= 0.5)
     state #  29: atom   2 (Pt ), wfc  2 (l=1 j=0.5 m_j=-0.5)
     state #  30: atom   2 (Pt ), wfc  2 (l=1 j=0.5 m_j= 0.5)
     state #  31: atom   2 (Pt ), wfc  3 (l=1 j=1.5 m_j=-1.5)
     state #  32: atom   2 (Pt ), wfc  3 (l=1 j=1.5 m_j=-0.5)
     state #  33: atom   2 (Pt ), wfc  3 (l=1 j=1.5 m_j= 0.5)
     state #  34: atom   2 (Pt ), wfc  3 (l=1 j=1.5 m_j= 1.5)
     state #  35: atom   2 (Pt ), wfc  4 (l=2 j=1.5 m_j=-1.5)
     state #  36: atom   2 (Pt ), wfc  4 (l=2 j=1.5 m_j=-0.5)
     state #  37: atom   2 (Pt ), wfc  4 (l=2 j=1.5 m_j= 0.5)
     state #  38: atom   2 (Pt ), wfc  4 (l=2 j=1.5 m_j= 1.5)
     state #  39: atom   2 (Pt ), wfc  5 (l=2 j=2.5 m_j=-2.5)
     state #  40: atom   2 (Pt ), wfc  5 (l=2 j=2.5 m_j=-1.5)
     state #  41: atom   2 (Pt ), wfc  5 (l=2 j=2.5 m_j=-0.5)
     state #  42: atom   2 (Pt ), wfc  5 (l=2 j=2.5 m_j= 0.5)
     state #  43: atom   2 (Pt ), wfc  5 (l=2 j=2.5 m_j= 1.5)
     state #  44: atom   2 (Pt ), wfc  5 (l=2 j=2.5 m_j= 2.5)

 k =   0.0000000000  0.0000000000  0.0000000000
==== e(   1) =   -71.96548 eV ==== 
     psi = 0.959*[#   2]+0.036*[#  28]+0.003*[#   4]+0.001*[#  42]
    |psi|^2 = 1.000
==== e(   2) =   -68.38109 eV ==== 
     psi = 0.958*[#   1]+0.036*[#  27]+0.004*[#   3]+0.001*[#  41]
    |psi|^2 = 1.000
==== e(   3) =   -38.53291 eV ==== 
     psi = 0.808*[#   5]+0.175*[#   8]+0.011*[#  11]+0.004*[#  14]+0.002*[#  29]
          
    |psi|^2 = 1.000
==== e(   4) =   -38.32864 eV ==== 
     psi = 0.533*[#   6]+0.457*[#   9]+0.005*[#  30]+0.003*[#  33]+0.002*[#  12]
          
    |psi|^2 = 1.000
==== e(   5) =   -37.36946 eV ==== 
     psi = 0.984*[#  10]+0.015*[#  16]
    |psi|^2 = 1.000
==== e(   6) =   -34.76948 eV ==== 
     psi = 0.533*[#   9]+0.453*[#   6]+0.008*[#  12]+0.005*[#  15]
    |psi|^2 = 1.000
==== e(   7) =   -34.41231 eV ==== 
     psi = 0.814*[#   8]+0.177*[#   5]+0.004*[#  29]+0.003*[#  32]+0.002*[#  14]
          
    |psi|^2 = 1.000
==== e(   8) =   -33.90478 eV ==== 
     psi = 0.986*[#   7]+0.013*[#  13]
    |psi|^2 = 1.000
==== e(   9) =     7.50058 eV ==== 
     psi = 0.483*[#  28]+0.475*[#   4]+0.029*[#   2]+0.005*[#  42]+0.004*[#  37]
          +0.002*[#  24]+0.001*[#  19]
    |psi|^2 = 0.999
==== e(  10) =     7.62695 eV ==== 
     psi = 0.499*[#  27]+0.460*[#   3]+0.031*[#   1]+0.005*[#  41]+0.004*[#  36]
          +0.001*[#  23]
    |psi|^2 = 0.999
==== e(  11) =    10.70309 eV ==== 
     psi = 0.332*[#  37]+0.307*[#  42]+0.187*[#  24]+0.108*[#  19]+0.055*[#   4]
          +0.008*[#  28]+0.001*[#   2]
    |psi|^2 = 0.999
==== e(  12) =    10.87893 eV ==== 
     psi = 0.448*[#  35]+0.340*[#  44]+0.077*[#  26]+0.063*[#  40]+0.054*[#  17]
          +0.018*[#  22]
    |psi|^2 = 0.999
==== e(  13) =    11.24878 eV ==== 
     psi = 0.440*[#  36]+0.341*[#  41]+0.108*[#  23]+0.058*[#   3]+0.039*[#  18]
          +0.011*[#  27]+0.001*[#   1]
    |psi|^2 = 0.998
==== e(  14) =    11.25935 eV ==== 
     psi = 0.502*[#  38]+0.366*[#  39]+0.060*[#  43]+0.037*[#  21]+0.021*[#  20]
          +0.013*[#  25]
    |psi|^2 = 0.998
==== e(  15) =    13.50565 eV ==== 
     psi = 0.404*[#  18]+0.244*[#  41]+0.211*[#  36]+0.139*[#  23]+0.002*[#   3]
          
    |psi|^2 = 1.000
==== e(  16) =    13.73934 eV ==== 
     psi = 0.445*[#  25]+0.299*[#  43]+0.165*[#  20]+0.076*[#  38]+0.013*[#  39]
          +0.002*[#  21]
    |psi|^2 = 1.000
==== e(  17) =    13.95487 eV ==== 
     psi = 0.464*[#  17]+0.297*[#  26]+0.161*[#  35]+0.061*[#  22]+0.017*[#  44]
          
    |psi|^2 = 0.999
==== e(  18) =    14.31963 eV ==== 
     psi = 0.552*[#  37]+0.325*[#  19]+0.107*[#  42]+0.015*[#  24]
    |psi|^2 = 0.999
==== e(  19) =    14.83880 eV ==== 
     psi = 0.414*[#  26]+0.177*[#  17]+0.149*[#  40]+0.142*[#  44]+0.110*[#  35]
          +0.008*[#  22]
    |psi|^2 = 1.000
==== e(  20) =    15.06242 eV ==== 
     psi = 0.424*[#  40]+0.304*[#  22]+0.164*[#  26]+0.064*[#  17]+0.043*[#  35]
          
    |psi|^2 = 0.999
==== e(  21) =    15.23128 eV ==== 
     psi = 0.483*[#  24]+0.455*[#  42]+0.060*[#  19]
    |psi|^2 = 1.000
==== e(  22) =    15.99711 eV ==== 
     psi = 0.267*[#  38]+0.265*[#  25]+0.199*[#  20]+0.178*[#  21]+0.083*[#  39]
          +0.003*[#  43]
    |psi|^2 = 0.994
==== e(  23) =    16.34730 eV ==== 
     psi = 0.334*[#  23]+0.317*[#  36]+0.183*[#  41]+0.163*[#  18]+0.002*[#   3]
          
    |psi|^2 = 0.999
==== e(  24) =    16.40962 eV ==== 
     psi = 0.383*[#  39]+0.294*[#  21]+0.157*[#  20]+0.132*[#  38]+0.021*[#  43]
          +0.010*[#  25]
    |psi|^2 = 0.996
==== e(  25) =    16.60727 eV ==== 
     psi = 0.498*[#  44]+0.216*[#  35]+0.131*[#  40]+0.106*[#  17]+0.047*[#  26]
          +0.002*[#  22]
    |psi|^2 = 0.999
==== e(  26) =    16.98637 eV ==== 
     psi = 0.595*[#  43]+0.154*[#  25]+0.114*[#  20]+0.107*[#  39]+0.028*[#  21]
          
    |psi|^2 = 0.999
==== e(  27) =    17.62144 eV ==== 
     psi = 0.391*[#  23]+0.378*[#  18]+0.203*[#  41]+0.017*[#  36]+0.004*[#   3]
          +0.003*[#  27]
    |psi|^2 = 0.996
==== e(  28) =    18.59186 eV ==== 
     psi = 0.502*[#  19]+0.302*[#  24]+0.100*[#  37]+0.094*[#  42]
    |psi|^2 = 0.999
==== e(  29) =    18.73905 eV ==== 
     psi = 0.457*[#  21]+0.340*[#  20]+0.112*[#  25]+0.048*[#  39]+0.022*[#  38]
          +0.021*[#  43]
    |psi|^2 = 0.999
==== e(  30) =    18.83723 eV ==== 
     psi = 0.605*[#  22]+0.233*[#  40]+0.135*[#  17]+0.022*[#  35]+0.004*[#  44]
          
    |psi|^2 = 0.999
==== e(  31) =    18.96533 eV ==== 
     psi = 0.414*[#  15]+0.235*[#  12]+0.204*[#  30]+0.141*[#  33]
    |psi|^2 = 0.994
==== e(  32) =    19.13675 eV ==== 
     psi = 0.407*[#  14]+0.231*[#  11]+0.213*[#  29]+0.143*[#  32]
    |psi|^2 = 0.994
==== e(  33) =    26.27926 eV ==== 
     psi = 0.432*[#   4]+0.431*[#  28]+0.029*[#  42]+0.012*[#  37]+0.010*[#   2]
          +0.009*[#  24]+0.003*[#  19]
    |psi|^2 = 0.925
==== e(  34) =    27.13406 eV ==== 
     psi = 0.431*[#   3]+0.408*[#  27]+0.026*[#  23]+0.023*[#  41]+0.015*[#  18]
          +0.010*[#  36]+0.009*[#   1]
    |psi|^2 = 0.922
==== e(  35) =    28.46070 eV ==== 
     psi = 0.309*[#  14]+0.270*[#  11]+0.261*[#  29]+0.118*[#  32]+0.003*[#   8]
          +0.002*[#   5]
    |psi|^2 = 0.964
==== e(  36) =    28.71819 eV ==== 
     psi = 0.302*[#  15]+0.279*[#  30]+0.253*[#  12]+0.119*[#  33]+0.003*[#   9]
          +0.002*[#   6]
    |psi|^2 = 0.959
==== e(  37) =    29.29047 eV ==== 
     psi = 0.676*[#  16]+0.261*[#  34]+0.008*[#  10]
    |psi|^2 = 0.945
==== e(  38) =    29.59464 eV ==== 
     psi = 0.660*[#  13]+0.267*[#  31]+0.007*[#   7]
    |psi|^2 = 0.934
==== e(  39) =    34.99204 eV ==== 
 
    |psi|^2 = 0.000
==== e(  40) =    35.18786 eV ==== 
 
    |psi|^2 = 0.000
==== e(  41) =    35.65568 eV ==== 
 
    |psi|^2 = 0.002
==== e(  42) =    36.33218 eV ==== 
     psi = 0.005*[#  21]+0.004*[#  20]+0.001*[#  25]
    |psi|^2 = 0.010
==== e(  43) =    36.40937 eV ==== 
     psi = 0.035*[#  28]+0.032*[#   4]
    |psi|^2 = 0.069
==== e(  44) =    36.96879 eV ==== 
     psi = 0.038*[#   3]+0.036*[#  27]
    |psi|^2 = 0.076
==== e(  45) =    38.99434 eV ==== 
     psi = 0.053*[#  11]+0.038*[#  29]+0.007*[#  32]+0.001*[#   5]
    |psi|^2 = 0.101
==== e(  46) =    39.08714 eV ==== 
     psi = 0.053*[#  12]+0.036*[#  30]+0.005*[#  33]+0.001*[#   6]
    |psi|^2 = 0.096
==== e(  47) =    39.58871 eV ==== 
     psi = 0.125*[#  34]+0.013*[#  16]
    |psi|^2 = 0.138
==== e(  48) =    39.67687 eV ==== 
     psi = 0.143*[#  31]+0.012*[#  13]
    |psi|^2 = 0.155
==== e(  49) =    39.96369 eV ==== 
     psi = 0.095*[#  33]+0.026*[#  15]+0.012*[#  30]
    |psi|^2 = 0.135
==== e(  50) =    40.13930 eV ==== 
     psi = 0.097*[#  32]+0.026*[#  14]+0.012*[#  29]+0.002*[#  11]
    |psi|^2 = 0.138
==== e(  51) =    43.83415 eV ==== 
 
    |psi|^2 = 0.001
==== e(  52) =    44.12718 eV ==== 
 
    |psi|^2 = 0.001
==== e(  53) =    45.63851 eV ==== 
 
    |psi|^2 = 0.000
==== e(  54) =    45.84187 eV ==== 
 
    |psi|^2 = 0.000
==== e(  55) =    46.23728 eV ==== 
     psi = 0.001*[#  19]
    |psi|^2 = 0.002
==== e(  56) =    46.44392 eV ==== 
     psi = 0.001*[#  22]
    |psi|^2 = 0.002
==== e(  57) =    48.21098 eV ==== 
 
    |psi|^2 = 0.000
==== e(  58) =    48.31022 eV ==== 
 
    |psi|^2 = 0.001
==== e(  59) =    50.14621 eV ==== 
     psi = 0.302*[#  29]+0.300*[#  11]+0.013*[#  32]+0.008*[#   5]+0.005*[#  14]
          
    |psi|^2 = 0.629
==== e(  60) =    50.55937 eV ==== 
     psi = 0.322*[#  12]+0.322*[#  30]+0.008*[#   6]
    |psi|^2 = 0.653
==== e(  61) =    51.96125 eV ==== 
     psi = 0.134*[#  34]+0.125*[#  16]+0.003*[#  10]
    |psi|^2 = 0.262
==== e(  62) =    52.17682 eV ==== 
 
    |psi|^2 = 0.000
==== e(  63) =    52.33811 eV ==== 
 
    |psi|^2 = 0.000
==== e(  64) =    52.68279 eV ==== 
     psi = 0.131*[#  13]+0.113*[#  31]+0.002*[#   7]
    |psi|^2 = 0.246
==== e(  65) =    52.72837 eV ==== 
     psi = 0.130*[#  33]+0.081*[#  15]+0.005*[#  30]+0.002*[#   9]
    |psi|^2 = 0.218
==== e(  66) =    53.24378 eV ==== 
     psi = 0.111*[#  32]+0.076*[#  14]+0.032*[#  29]+0.013*[#  11]+0.001*[#   8]
          
    |psi|^2 = 0.234
==== e(  67) =    53.90400 eV ==== 
 
    |psi|^2 = 0.000
==== e(  68) =    54.85951 eV ==== 
 
    |psi|^2 = 0.001
==== e(  69) =    56.52580 eV ==== 
 
    |psi|^2 = 0.000
==== e(  70) =    57.11643 eV ==== 
 
    |psi|^2 = 0.000
==== e(  71) =    57.53166 eV ==== 
     psi = 0.003*[#  33]+0.001*[#  30]
    |psi|^2 = 0.005
==== e(  72) =    57.63347 eV ==== 
     psi = 0.003*[#  32]+0.002*[#  29]
    |psi|^2 = 0.005
==== e(  73) =    59.74602 eV ==== 
 
    |psi|^2 = 0.000
==== e(  74) =    59.80708 eV ==== 
 
    |psi|^2 = 0.000
==== e(  75) =    59.87202 eV ==== 
 
    |psi|^2 = 0.000
==== e(  76) =    59.93514 eV ==== 
 
    |psi|^2 = 0.000
==== e(  77) =    60.02172 eV ==== 
     psi = 0.007*[#  14]+0.007*[#  11]+0.002*[#  32]
    |psi|^2 = 0.017
==== e(  78) =    60.20423 eV ==== 
     psi = 0.009*[#  12]+0.009*[#  15]+0.002*[#  33]
    |psi|^2 = 0.022
==== e(  79) =    60.50176 eV ==== 
     psi = 0.016*[#  16]+0.008*[#  34]
    |psi|^2 = 0.024
==== e(  80) =    60.66699 eV ==== 
     psi = 0.019*[#  13]+0.009*[#  31]
    |psi|^2 = 0.029
==== e(  81) =    64.76313 eV ==== 
 
    |psi|^2 = 0.000
==== e(  82) =    64.84529 eV ==== 
 
    |psi|^2 = 0.000
==== e(  83) =    67.45556 eV ==== 
     psi = 0.003*[#  28]
    |psi|^2 = 0.004
==== e(  84) =    67.76916 eV ==== 
     psi = 0.013*[#  14]+0.010*[#  11]+0.009*[#  32]+0.002*[#  29]
    |psi|^2 = 0.035
==== e(  85) =    68.08336 eV ==== 
     psi = 0.003*[#  27]+0.002*[#   3]
    |psi|^2 = 0.005
==== e(  86) =    68.12743 eV ==== 
 
    |psi|^2 = 0.000
==== e(  87) =    68.17498 eV ==== 
 
    |psi|^2 = 0.000
==== e(  88) =    68.34927 eV ==== 
 
    |psi|^2 = 0.000
==== e(  89) =    68.34937 eV ==== 
     psi = 0.014*[#  15]+0.012*[#  12]+0.009*[#  33]+0.002*[#  30]
    |psi|^2 = 0.038
==== e(  90) =    68.36550 eV ==== 
 
    |psi|^2 = 0.001
==== e(  91) =    69.04315 eV ==== 
     psi = 0.053*[#  34]+0.047*[#  16]+0.001*[#  10]
    |psi|^2 = 0.100
==== e(  92) =    69.59268 eV ==== 
     psi = 0.051*[#  31]+0.051*[#  13]+0.001*[#   7]
    |psi|^2 = 0.103
==== e(  93) =    70.71828 eV ==== 
 
    |psi|^2 = 0.000
==== e(  94) =    71.14335 eV ==== 
 
    |psi|^2 = 0.000
==== e(  95) =    77.14389 eV ==== 
 
    |psi|^2 = 0.000
==== e(  96) =    77.37241 eV ==== 
 
    |psi|^2 = 0.000
==== e(  97) =    77.75531 eV ==== 
 
    |psi|^2 = 0.000
==== e(  98) =    77.98367 eV ==== 
 
    |psi|^2 = 0.000

 k =   0.0000000000  0.0000000000  0.1203208323
==== e(   1) =   -71.96552 eV ==== 
     psi = 0.909*[#   2]+0.047*[#  33]+0.019*[#  30]+0.009*[#  15]+0.009*[#  28]
          +0.004*[#  12]
    |psi|^2 = 1.000
==== e(   2) =   -68.38107 eV ==== 
     psi = 0.908*[#   1]+0.047*[#  32]+0.019*[#  29]+0.009*[#  14]+0.009*[#  27]
          +0.004*[#  11]
    |psi|^2 = 1.000
==== e(   3) =   -38.53297 eV ==== 
     psi = 0.808*[#   5]+0.175*[#   8]+0.009*[#  11]+0.005*[#  14]+0.001*[#  29]
          
    |psi|^2 = 1.000
==== e(   4) =   -38.32982 eV ==== 
     psi = 0.532*[#   6]+0.455*[#   9]+0.006*[#  28]+0.003*[#  30]+0.002*[#  33]
          
    |psi|^2 = 1.000
==== e(   5) =   -37.36953 eV ==== 
     psi = 0.985*[#  10]+0.015*[#  16]
    |psi|^2 = 1.000
==== e(   6) =   -34.76961 eV ==== 
     psi = 0.532*[#   9]+0.454*[#   6]+0.009*[#  12]+0.004*[#  15]
    |psi|^2 = 1.000
==== e(   7) =   -34.41381 eV ==== 
     psi = 0.811*[#   8]+0.176*[#   5]+0.006*[#  27]+0.003*[#  32]+0.002*[#  29]
          
    |psi|^2 = 1.000
==== e(   8) =   -33.90486 eV ==== 
     psi = 0.986*[#   7]+0.013*[#  13]
    |psi|^2 = 1.000
==== e(   9) =     7.82904 eV ==== 
     psi = 0.326*[#  28]+0.295*[#   4]+0.124*[#  15]+0.100*[#  33]+0.060*[#  12]
          +0.036*[#   2]+0.036*[#  30]+0.010*[#  42]+0.008*[#  37]+0.002*[#  24]
          +0.001*[#  19]
    |psi|^2 = 0.999
==== e(  10) =     7.95087 eV ==== 
     psi = 0.339*[#  27]+0.281*[#   3]+0.125*[#  14]+0.100*[#  32]+0.060*[#  11]
          +0.038*[#   1]+0.035*[#  29]+0.010*[#  41]+0.008*[#  36]+0.001*[#   8]
          
    |psi|^2 = 0.999
==== e(  11) =    10.83623 eV ==== 
     psi = 0.315*[#  37]+0.285*[#  42]+0.173*[#  24]+0.100*[#  19]+0.078*[#   4]
          +0.016*[#  33]+0.012*[#  30]+0.009*[#  28]+0.005*[#  15]+0.003*[#   2]
          +0.003*[#  12]
    |psi|^2 = 0.999
==== e(  12) =    10.96804 eV ==== 
     psi = 0.464*[#  35]+0.347*[#  44]+0.065*[#  26]+0.064*[#  40]+0.045*[#  17]
          +0.015*[#  22]
    |psi|^2 = 0.999
==== e(  13) =    11.32549 eV ==== 
     psi = 0.512*[#  38]+0.369*[#  39]+0.061*[#  43]+0.029*[#  21]+0.017*[#  20]
          +0.010*[#  25]
    |psi|^2 = 0.998
==== e(  14) =    11.35436 eV ==== 
     psi = 0.414*[#  36]+0.314*[#  41]+0.095*[#  23]+0.084*[#   3]+0.034*[#  18]
          +0.018*[#  32]+0.014*[#  29]+0.011*[#  27]+0.006*[#  14]+0.003*[#   1]
          +0.003*[#  11]
    |psi|^2 = 0.998
==== e(  15) =    13.63508 eV ==== 
     psi = 0.399*[#  18]+0.233*[#  41]+0.222*[#  36]+0.139*[#  23]+0.003*[#   3]
          +0.002*[#  11]
    |psi|^2 = 0.999
==== e(  16) =    13.84117 eV ==== 
     psi = 0.443*[#  17]+0.342*[#  26]+0.122*[#  35]+0.072*[#  22]+0.019*[#  44]
          
    |psi|^2 = 0.998
==== e(  17) =    13.87585 eV ==== 
     psi = 0.453*[#  25]+0.290*[#  43]+0.166*[#  20]+0.075*[#  38]+0.014*[#  39]
          +0.001*[#  21]
    |psi|^2 = 0.999
==== e(  18) =    14.33083 eV ==== 
     psi = 0.556*[#  37]+0.328*[#  19]+0.062*[#  42]+0.050*[#  24]+0.002*[#  12]
          
    |psi|^2 = 0.999
==== e(  19) =    14.89075 eV ==== 
     psi = 0.418*[#  26]+0.229*[#  17]+0.125*[#  44]+0.114*[#  40]+0.113*[#  35]
          
    |psi|^2 = 1.000
==== e(  20) =    15.12847 eV ==== 
     psi = 0.461*[#  40]+0.275*[#  22]+0.135*[#  26]+0.073*[#  35]+0.051*[#  17]
          +0.003*[#  44]
    |psi|^2 = 0.999
==== e(  21) =    15.13542 eV ==== 
     psi = 0.486*[#  42]+0.444*[#  24]+0.043*[#  19]+0.014*[#  37]+0.005*[#   4]
          +0.002*[#  12]+0.002*[#  30]+0.001*[#  33]
    |psi|^2 = 0.999
==== e(  22) =    15.91583 eV ==== 
     psi = 0.286*[#  25]+0.247*[#  21]+0.212*[#  38]+0.203*[#  20]+0.044*[#  39]
          
    |psi|^2 = 0.992
==== e(  23) =    16.01930 eV ==== 
     psi = 0.329*[#  36]+0.313*[#  23]+0.172*[#  18]+0.146*[#  41]+0.011*[#  29]
          +0.011*[#  11]+0.006*[#   3]+0.004*[#  14]+0.003*[#  27]+0.002*[#  32]
          
    |psi|^2 = 0.999
==== e(  24) =    16.27789 eV ==== 
     psi = 0.292*[#  39]+0.201*[#  21]+0.190*[#  20]+0.167*[#  38]+0.096*[#  43]
          +0.048*[#  25]
    |psi|^2 = 0.997
==== e(  25) =    16.56335 eV ==== 
     psi = 0.502*[#  44]+0.210*[#  35]+0.153*[#  40]+0.092*[#  17]+0.038*[#  26]
          +0.004*[#  22]
    |psi|^2 = 0.999
==== e(  26) =    16.81413 eV ==== 
     psi = 0.533*[#  43]+0.241*[#  39]+0.093*[#  25]+0.070*[#  20]+0.045*[#  21]
          +0.014*[#  38]+0.002*[#  16]
    |psi|^2 = 0.999
==== e(  27) =    17.29641 eV ==== 
     psi = 0.279*[#  18]+0.279*[#  41]+0.219*[#  23]+0.064*[#  14]+0.033*[#  32]
          +0.029*[#  29]+0.028*[#  11]+0.027*[#   3]+0.020*[#  27]+0.017*[#  36]
          
    |psi|^2 = 0.996
==== e(  28) =    17.50589 eV ==== 
     psi = 0.269*[#  15]+0.158*[#  12]+0.156*[#  30]+0.135*[#  33]+0.093*[#   4]
          +0.066*[#  19]+0.044*[#  28]+0.036*[#  37]+0.031*[#  42]+0.004*[#  24]
          +0.002*[#   9]
    |psi|^2 = 0.995
==== e(  29) =    18.05312 eV ==== 
     psi = 0.220*[#  14]+0.217*[#  23]+0.128*[#  29]+0.122*[#  11]+0.121*[#  32]
          +0.103*[#  18]+0.056*[#   3]+0.020*[#  27]+0.003*[#  41]+0.002*[#   8]
          
    |psi|^2 = 0.994
==== e(  30) =    18.35984 eV ==== 
     psi = 0.456*[#  19]+0.321*[#  24]+0.108*[#  42]+0.062*[#  37]+0.027*[#  15]
          +0.014*[#  33]+0.005*[#   4]+0.003*[#  12]+0.002*[#  30]+0.002*[#  28]
          
    |psi|^2 = 0.998
==== e(  31) =    18.53730 eV ==== 
     psi = 0.630*[#  22]+0.203*[#  40]+0.139*[#  17]+0.017*[#  35]+0.004*[#  44]
          +0.003*[#  13]+0.001*[#  31]
    |psi|^2 = 0.998
==== e(  32) =    18.68460 eV ==== 
     psi = 0.470*[#  21]+0.350*[#  20]+0.108*[#  25]+0.038*[#  39]+0.018*[#  38]
          +0.015*[#  43]
    |psi|^2 = 0.999
==== e(  33) =    28.05918 eV ==== 
     psi = 0.347*[#  28]+0.287*[#   4]+0.096*[#  12]+0.079*[#  30]+0.017*[#  15]
          +0.010*[#  42]+0.010*[#   2]+0.008*[#  37]+0.004*[#  33]+0.004*[#  19]
          +0.003*[#  24]
    |psi|^2 = 0.866
==== e(  34) =    28.63237 eV ==== 
     psi = 0.227*[#  27]+0.221*[#   3]+0.210*[#  11]+0.178*[#  29]+0.010*[#  18]
          +0.009*[#  14]+0.008*[#  23]+0.008*[#  32]+0.008*[#  36]+0.007*[#   1]
          +0.004*[#  41]+0.001*[#   5]
    |psi|^2 = 0.892
==== e(  35) =    29.36958 eV ==== 
     psi = 0.315*[#  14]+0.135*[#  32]+0.134*[#  27]+0.110*[#  29]+0.107*[#  11]
          +0.077*[#   3]+0.008*[#  41]+0.007*[#  23]+0.003*[#   8]+0.002*[#   1]
          +0.001*[#   5]+0.001*[#  18]
    |psi|^2 = 0.901
==== e(  36) =    29.50284 eV ==== 
     psi = 0.302*[#  15]+0.229*[#  30]+0.205*[#  12]+0.145*[#  33]+0.029*[#  28]
          +0.006*[#   4]+0.004*[#  42]+0.003*[#   9]+0.003*[#  24]+0.002*[#   6]
          +0.001*[#  19]
    |psi|^2 = 0.930
==== e(  37) =    29.96963 eV ==== 
     psi = 0.671*[#  16]+0.232*[#  34]+0.008*[#  10]+0.003*[#  43]
    |psi|^2 = 0.914
==== e(  38) =    30.31439 eV ==== 
     psi = 0.648*[#  13]+0.240*[#  31]+0.007*[#   7]+0.003*[#  40]+0.002*[#  22]
          
    |psi|^2 = 0.901
==== e(  39) =    34.16655 eV ==== 
 
    |psi|^2 = 0.002
==== e(  40) =    34.45804 eV ==== 
     psi = 0.004*[#  21]+0.003*[#  20]
    |psi|^2 = 0.008
==== e(  41) =    36.24052 eV ==== 
     psi = 0.069*[#   4]+0.037*[#  28]+0.018*[#  33]+0.014*[#  30]+0.007*[#  15]
          +0.005*[#   2]+0.001*[#  42]
    |psi|^2 = 0.151
==== e(  42) =    36.78337 eV ==== 
     psi = 0.084*[#   3]+0.034*[#  27]+0.019*[#  29]+0.018*[#  32]+0.007*[#  14]
          +0.005*[#   1]+0.001*[#  41]
    |psi|^2 = 0.169
==== e(  43) =    37.10080 eV ==== 
 
    |psi|^2 = 0.001
==== e(  44) =    37.29956 eV ==== 
     psi = 0.002*[#  21]+0.001*[#  20]
    |psi|^2 = 0.004
==== e(  45) =    38.18262 eV ==== 
     psi = 0.118*[#  11]+0.075*[#  29]+0.027*[#  27]+0.011*[#   3]+0.003*[#   1]
          +0.003*[#   5]
    |psi|^2 = 0.237
==== e(  46) =    38.27799 eV ==== 
     psi = 0.104*[#  12]+0.081*[#  30]+0.030*[#  28]+0.018*[#   4]+0.005*[#  33]
          +0.005*[#   2]+0.002*[#   6]
    |psi|^2 = 0.246
==== e(  47) =    38.68702 eV ==== 
     psi = 0.008*[#  14]+0.005*[#  29]+0.004*[#  27]+0.003*[#  32]+0.002*[#   3]
          
    |psi|^2 = 0.022
==== e(  48) =    38.78050 eV ==== 
     psi = 0.014*[#  12]+0.007*[#  15]
    |psi|^2 = 0.024
==== e(  49) =    38.89956 eV ==== 
     psi = 0.041*[#  34]+0.002*[#  16]
    |psi|^2 = 0.043
==== e(  50) =    39.12838 eV ==== 
     psi = 0.053*[#  31]+0.002*[#  13]
    |psi|^2 = 0.056
==== e(  51) =    45.40448 eV ==== 
     psi = 0.031*[#  11]+0.026*[#  29]+0.005*[#  32]+0.004*[#  14]
    |psi|^2 = 0.068
==== e(  52) =    45.61218 eV ==== 
     psi = 0.016*[#  16]+0.009*[#  34]
    |psi|^2 = 0.025
==== e(  53) =    45.75019 eV ==== 
     psi = 0.046*[#  12]+0.043*[#  30]+0.003*[#  15]+0.003*[#   4]+0.003*[#  28]
          +0.003*[#  33]+0.001*[#   6]
    |psi|^2 = 0.104
==== e(  54) =    46.03159 eV ==== 
     psi = 0.017*[#  13]+0.007*[#  31]
    |psi|^2 = 0.026
==== e(  55) =    46.24544 eV ==== 
     psi = 0.028*[#  29]+0.017*[#  11]+0.012*[#  27]+0.006*[#   3]+0.002*[#  14]
          +0.001*[#   1]
    |psi|^2 = 0.067
==== e(  56) =    46.27277 eV ==== 
     psi = 0.022*[#  30]+0.013*[#  28]+0.009*[#  12]+0.008*[#   4]+0.004*[#  33]
          +0.004*[#  15]+0.002*[#   2]
    |psi|^2 = 0.062
==== e(  57) =    48.32435 eV ==== 
 
    |psi|^2 = 0.000
==== e(  58) =    48.43785 eV ==== 
 
    |psi|^2 = 0.001
==== e(  59) =    49.23545 eV ==== 
     psi = 0.072*[#  30]+0.042*[#  12]+0.030*[#   4]+0.029*[#  28]+0.019*[#  33]
          +0.010*[#  15]+0.007*[#   2]+0.001*[#   6]
    |psi|^2 = 0.211
==== e(  60) =    49.65501 eV ==== 
     psi = 0.103*[#  29]+0.068*[#  11]+0.033*[#   3]+0.031*[#  27]+0.009*[#  32]
          +0.007*[#  14]+0.007*[#   1]+0.002*[#   5]
    |psi|^2 = 0.260
==== e(  61) =    51.65152 eV ==== 
 
    |psi|^2 = 0.000
==== e(  62) =    52.05567 eV ==== 
 
    |psi|^2 = 0.000
==== e(  63) =    52.31324 eV ==== 
     psi = 0.128*[#  32]+0.107*[#  11]+0.103*[#  29]+0.062*[#  14]+0.004*[#  27]
          +0.003*[#   3]+0.002*[#   5]+0.002*[#   8]+0.001*[#   1]
    |psi|^2 = 0.412
==== e(  64) =    52.91165 eV ==== 
     psi = 0.129*[#  12]+0.118*[#  30]+0.117*[#  33]+0.059*[#  15]+0.003*[#   6]
          +0.002*[#  28]+0.001*[#   9]+0.001*[#   4]
    |psi|^2 = 0.431
==== e(  65) =    53.47689 eV ==== 
     psi = 0.196*[#  34]+0.143*[#  16]+0.003*[#  10]
    |psi|^2 = 0.343
==== e(  66) =    54.23015 eV ==== 
     psi = 0.176*[#  31]+0.151*[#  13]+0.003*[#   7]
    |psi|^2 = 0.331
==== e(  67) =    54.80028 eV ==== 
     psi = 0.002*[#  31]
    |psi|^2 = 0.003
==== e(  68) =    55.35544 eV ==== 
     psi = 0.008*[#  11]+0.003*[#  14]+0.002*[#  32]
    |psi|^2 = 0.013
==== e(  69) =    55.38785 eV ==== 
     psi = 0.013*[#  12]+0.005*[#  15]
    |psi|^2 = 0.019
==== e(  70) =    55.47381 eV ==== 
     psi = 0.003*[#  34]
    |psi|^2 = 0.003
==== e(  71) =    55.53278 eV ==== 
     psi = 0.012*[#  31]+0.004*[#  13]
    |psi|^2 = 0.016
==== e(  72) =    55.54025 eV ==== 
     psi = 0.011*[#  34]+0.003*[#  16]
    |psi|^2 = 0.014
==== e(  73) =    55.78350 eV ==== 
     psi = 0.003*[#  15]+0.002*[#  12]+0.002*[#   4]+0.002*[#  30]+0.001*[#  28]
          
    |psi|^2 = 0.010
==== e(  74) =    56.22430 eV ==== 
     psi = 0.004*[#  14]+0.003*[#  11]+0.003*[#   3]+0.002*[#  27]+0.002*[#  29]
          
    |psi|^2 = 0.014
==== e(  75) =    60.48432 eV ==== 
     psi = 0.004*[#  33]+0.002*[#   4]+0.001*[#  15]
    |psi|^2 = 0.009
==== e(  76) =    60.49195 eV ==== 
 
    |psi|^2 = 0.000
==== e(  77) =    60.51466 eV ==== 
 
    |psi|^2 = 0.000
==== e(  78) =    60.81741 eV ==== 
     psi = 0.004*[#  32]+0.001*[#   3]+0.001*[#  14]
    |psi|^2 = 0.008
==== e(  79) =    64.49155 eV ==== 
     psi = 0.008*[#  32]+0.007*[#  14]+0.004*[#  11]+0.003*[#  29]+0.001*[#   3]
          +0.001*[#  27]
    |psi|^2 = 0.025
==== e(  80) =    64.63277 eV ==== 
     psi = 0.008*[#  15]+0.008*[#  33]+0.005*[#  12]+0.003*[#  30]+0.001*[#   4]
          +0.001*[#  28]
    |psi|^2 = 0.026
==== e(  81) =    65.28333 eV ==== 
     psi = 0.035*[#  34]+0.009*[#  16]
    |psi|^2 = 0.044
==== e(  82) =    65.33667 eV ==== 
     psi = 0.036*[#  31]+0.010*[#  13]
    |psi|^2 = 0.047
==== e(  83) =    66.53410 eV ==== 
     psi = 0.006*[#  11]+0.005*[#  14]
    |psi|^2 = 0.011
==== e(  84) =    67.03757 eV ==== 
     psi = 0.007*[#  12]+0.005*[#  15]
    |psi|^2 = 0.013
==== e(  85) =    67.49351 eV ==== 
     psi = 0.032*[#  16]+0.028*[#  34]
    |psi|^2 = 0.061
==== e(  86) =    68.04300 eV ==== 
     psi = 0.010*[#  33]+0.006*[#  28]+0.004*[#  15]
    |psi|^2 = 0.023
==== e(  87) =    68.09969 eV ==== 
     psi = 0.037*[#  13]+0.029*[#  31]
    |psi|^2 = 0.066
==== e(  88) =    68.28978 eV ==== 
     psi = 0.009*[#  32]+0.005*[#  27]+0.003*[#  14]
    |psi|^2 = 0.018
==== e(  89) =    69.63464 eV ==== 
     psi = 0.006*[#  28]+0.005*[#  12]+0.003*[#  30]
    |psi|^2 = 0.015
==== e(  90) =    70.01247 eV ==== 
     psi = 0.010*[#  27]+0.005*[#  11]+0.003*[#  29]+0.003*[#  14]+0.001*[#  32]
          
    |psi|^2 = 0.022
==== e(  91) =    70.16125 eV ==== 
 
    |psi|^2 = 0.001
==== e(  92) =    70.68880 eV ==== 
 
    |psi|^2 = 0.000
==== e(  93) =    73.29299 eV ==== 
 
    |psi|^2 = 0.000
==== e(  94) =    73.31801 eV ==== 
 
    |psi|^2 = 0.000
==== e(  95) =    77.34334 eV ==== 
     psi = 0.002*[#  32]+0.001*[#  11]
    |psi|^2 = 0.004
==== e(  96) =    77.43895 eV ==== 
     psi = 0.002*[#  16]
    |psi|^2 = 0.003
==== e(  97) =    77.88606 eV ==== 
     psi = 0.010*[#  33]+0.002*[#   4]+0.002*[#  12]+0.002*[#  28]
    |psi|^2 = 0.018
==== e(  98) =    77.99358 eV ==== 
     psi = 0.002*[#  13]+0.001*[#  31]
    |psi|^2 = 0.003

 k =   0.0000000000  0.0000000000  0.2406416645
==== e(   1) =   -71.96538 eV ==== 
     psi = 0.849*[#   2]+0.098*[#  33]+0.036*[#  30]+0.011*[#   4]+0.004*[#  15]
          +0.002*[#  12]
    |psi|^2 = 1.000
==== e(   2) =   -68.38092 eV ==== 
     psi = 0.849*[#   1]+0.099*[#  32]+0.036*[#  29]+0.010*[#   3]+0.004*[#  14]
          +0.002*[#  11]
    |psi|^2 = 1.000
==== e(   3) =   -38.53293 eV ==== 
     psi = 0.809*[#   5]+0.176*[#   8]+0.008*[#  11]+0.006*[#  14]
    |psi|^2 = 1.000
==== e(   4) =   -38.33089 eV ==== 
     psi = 0.529*[#   6]+0.451*[#   9]+0.011*[#  28]+0.005*[#  15]+0.001*[#  30]
          
    |psi|^2 = 1.000
==== e(   5) =   -37.36955 eV ==== 
     psi = 0.985*[#  10]+0.014*[#  16]
    |psi|^2 = 1.000
==== e(   6) =   -34.76973 eV ==== 
     psi = 0.531*[#   9]+0.455*[#   6]+0.010*[#  12]+0.002*[#  15]
    |psi|^2 = 1.000
==== e(   7) =   -34.41551 eV ==== 
     psi = 0.806*[#   8]+0.174*[#   5]+0.011*[#  27]+0.004*[#  11]+0.003*[#  14]
          +0.001*[#  32]
    |psi|^2 = 1.000
==== e(   8) =   -33.90493 eV ==== 
     psi = 0.986*[#   7]+0.012*[#  13]
    |psi|^2 = 1.000
==== e(   9) =     8.68122 eV ==== 
     psi = 0.287*[#  15]+0.212*[#  28]+0.140*[#  12]+0.117*[#   4]+0.100*[#  33]
          +0.039*[#  30]+0.038*[#  42]+0.032*[#  37]+0.026*[#   2]+0.005*[#   9]
          +0.002*[#   6]
    |psi|^2 = 0.999
==== e(  10) =     8.78138 eV ==== 
     psi = 0.291*[#  14]+0.222*[#  27]+0.142*[#  11]+0.106*[#   3]+0.095*[#  32]
          +0.038*[#  41]+0.037*[#  29]+0.032*[#  36]+0.027*[#   1]+0.006*[#   8]
          +0.003*[#   5]
    |psi|^2 = 0.999
==== e(  11) =    11.11200 eV ==== 
     psi = 0.206*[#  37]+0.175*[#  42]+0.161*[#   4]+0.130*[#  33]+0.126*[#  24]
          +0.074*[#  19]+0.073*[#  30]+0.018*[#   2]+0.018*[#  15]+0.009*[#  12]
          +0.007*[#  28]
    |psi|^2 = 0.999
==== e(  12) =    11.17306 eV ==== 
     psi = 0.508*[#  35]+0.368*[#  44]+0.067*[#  40]+0.029*[#  26]+0.020*[#  17]
          +0.007*[#  22]
    |psi|^2 = 0.999
==== e(  13) =    11.46777 eV ==== 
     psi = 0.536*[#  38]+0.379*[#  39]+0.063*[#  43]+0.011*[#  21]+0.006*[#  20]
          +0.004*[#  25]
    |psi|^2 = 0.999
==== e(  14) =    11.56290 eV ==== 
     psi = 0.262*[#  36]+0.188*[#  41]+0.172*[#   3]+0.151*[#  32]+0.086*[#  29]
          +0.059*[#  23]+0.023*[#  18]+0.022*[#   1]+0.019*[#  14]+0.009*[#  11]
          +0.007*[#  27]
    |psi|^2 = 0.998
==== e(  15) =    13.57425 eV ==== 
     psi = 0.426*[#  17]+0.421*[#  26]+0.091*[#  22]+0.046*[#  35]+0.012*[#  44]
          
    |psi|^2 = 0.997
==== e(  16) =    13.96618 eV ==== 
     psi = 0.348*[#  36]+0.338*[#  18]+0.143*[#  41]+0.121*[#  23]+0.013*[#  11]
          +0.011*[#  32]+0.010*[#   3]+0.005*[#  14]+0.005*[#  29]+0.004*[#  27]
          
    |psi|^2 = 0.999
==== e(  17) =    14.20550 eV ==== 
     psi = 0.542*[#  37]+0.261*[#  19]+0.166*[#  24]+0.013*[#  12]+0.008*[#  15]
          +0.007*[#  28]
    |psi|^2 = 0.999
==== e(  18) =    14.26786 eV ==== 
     psi = 0.501*[#  25]+0.242*[#  43]+0.174*[#  20]+0.066*[#  38]+0.014*[#  39]
          +0.001*[#  16]+0.001*[#  21]
    |psi|^2 = 0.999
==== e(  19) =    14.85127 eV ==== 
     psi = 0.315*[#  24]+0.183*[#  37]+0.168*[#  42]+0.084*[#  19]+0.058*[#  33]
          +0.054*[#   4]+0.044*[#  30]+0.039*[#  12]+0.037*[#  15]+0.009*[#  28]
          +0.005*[#   2]+0.001*[#   6]
    |psi|^2 = 0.998
==== e(  20) =    15.02464 eV ==== 
     psi = 0.474*[#  26]+0.326*[#  17]+0.066*[#  35]+0.064*[#  44]+0.039*[#  40]
          +0.030*[#  22]
    |psi|^2 = 1.000
==== e(  21) =    15.04411 eV ==== 
     psi = 0.338*[#  36]+0.223*[#  23]+0.200*[#  18]+0.052*[#  14]+0.047*[#  11]
          +0.046*[#  29]+0.037*[#  32]+0.026*[#   3]+0.020*[#  27]+0.004*[#  41]
          +0.003*[#   1]+0.001*[#   8]+0.001*[#   5]
    |psi|^2 = 0.999
==== e(  22) =    15.28337 eV ==== 
     psi = 0.527*[#  40]+0.195*[#  35]+0.140*[#  22]+0.060*[#  26]+0.051*[#  44]
          +0.021*[#  17]+0.004*[#  13]
    |psi|^2 = 0.999
==== e(  23) =    15.53822 eV ==== 
     psi = 0.563*[#  42]+0.129*[#  15]+0.073*[#  33]+0.052*[#  30]+0.047*[#  19]
          +0.045*[#  12]+0.043*[#   4]+0.030*[#  28]+0.006*[#  24]+0.004*[#   2]
          +0.003*[#   9]
    |psi|^2 = 0.997
==== e(  24) =    15.65337 eV ==== 
     psi = 0.380*[#  25]+0.214*[#  38]+0.163*[#  43]+0.146*[#  21]+0.054*[#  39]
          +0.033*[#  20]+0.003*[#  16]
    |psi|^2 = 0.995
==== e(  25) =    15.80017 eV ==== 
     psi = 0.400*[#  20]+0.306*[#  21]+0.194*[#  43]+0.051*[#  39]+0.037*[#  38]
          +0.002*[#  16]
    |psi|^2 = 0.991
==== e(  26) =    15.88245 eV ==== 
     psi = 0.607*[#  41]+0.105*[#  18]+0.092*[#  14]+0.055*[#  32]+0.030*[#  23]
          +0.026*[#   3]+0.024*[#  29]+0.023*[#  11]+0.021*[#  27]+0.010*[#  36]
          +0.003*[#   1]+0.003*[#   8]
    |psi|^2 = 0.998
==== e(  27) =    16.49208 eV ==== 
     psi = 0.501*[#  44]+0.249*[#  40]+0.176*[#  35]+0.046*[#  17]+0.015*[#  26]
          +0.012*[#  22]
    |psi|^2 = 0.999
==== e(  28) =    16.68683 eV ==== 
     psi = 0.486*[#  39]+0.325*[#  43]+0.138*[#  38]+0.029*[#  21]+0.012*[#  20]
          +0.008*[#  25]+0.001*[#  16]
    |psi|^2 = 0.999
==== e(  29) =    17.36376 eV ==== 
     psi = 0.558*[#  23]+0.325*[#  18]+0.024*[#  32]+0.020*[#  29]+0.018*[#  14]
          +0.016*[#   3]+0.013*[#  41]+0.010*[#  11]+0.003*[#  36]+0.002*[#   1]
          
    |psi|^2 = 0.990
==== e(  30) =    17.77350 eV ==== 
     psi = 0.524*[#  19]+0.381*[#  24]+0.048*[#  42]+0.029*[#  37]+0.005*[#  33]
          +0.004*[#  15]+0.003*[#  30]+0.001*[#   4]
    |psi|^2 = 0.997
==== e(  31) =    17.92123 eV ==== 
     psi = 0.715*[#  22]+0.158*[#  17]+0.107*[#  40]+0.006*[#  35]+0.004*[#  44]
          +0.004*[#  13]+0.002*[#  31]
    |psi|^2 = 0.996
==== e(  32) =    18.57146 eV ==== 
     psi = 0.500*[#  21]+0.369*[#  20]+0.104*[#  25]+0.015*[#  39]+0.007*[#  38]
          +0.005*[#  43]
    |psi|^2 = 0.999
==== e(  33) =    30.68606 eV ==== 
     psi = 0.327*[#  29]+0.277*[#  11]+0.108*[#  32]+0.106*[#  14]+0.023*[#   3]
          +0.019*[#  27]+0.004*[#  36]+0.004*[#  18]+0.003*[#   5]+0.001*[#   8]
          
    |psi|^2 = 0.874
==== e(  34) =    30.87781 eV ==== 
     psi = 0.302*[#  30]+0.238*[#  12]+0.086*[#  28]+0.075*[#  33]+0.047*[#   4]
          +0.034*[#  15]+0.007*[#  19]+0.004*[#  37]+0.002*[#   6]+0.002*[#   2]
          
    |psi|^2 = 0.798
==== e(  35) =    31.77296 eV ==== 
     psi = 0.585*[#  16]+0.209*[#  34]+0.008*[#  10]+0.005*[#  43]
    |psi|^2 = 0.808
==== e(  36) =    31.79576 eV ==== 
     psi = 0.208*[#  28]+0.191*[#  15]+0.053*[#  30]+0.049*[#  33]+0.023*[#   4]
          +0.017*[#  12]+0.004*[#  24]+0.004*[#  42]+0.002*[#   9]+0.001*[#   2]
          
    |psi|^2 = 0.551
==== e(  37) =    32.18286 eV ==== 
     psi = 0.546*[#  13]+0.224*[#  31]+0.006*[#   7]+0.005*[#  40]+0.003*[#  22]
          +0.001*[#  35]
    |psi|^2 = 0.786
==== e(  38) =    32.22068 eV ==== 
     psi = 0.252*[#  27]+0.129*[#  14]+0.042*[#   3]+0.014*[#  32]+0.009*[#  23]
          +0.004*[#  18]+0.003*[#  29]+0.003*[#  41]+0.002*[#   1]
    |psi|^2 = 0.458
==== e(  39) =    33.45364 eV ==== 
     psi = 0.002*[#  26]+0.001*[#  17]
    |psi|^2 = 0.003
==== e(  40) =    33.95953 eV ==== 
     psi = 0.007*[#  21]+0.005*[#  20]+0.001*[#  25]
    |psi|^2 = 0.014
==== e(  41) =    36.08399 eV ==== 
     psi = 0.213*[#  11]+0.139*[#  29]+0.098*[#  14]+0.056*[#   3]+0.007*[#  32]
          +0.006*[#   1]+0.004*[#   5]+0.002*[#  27]+0.002*[#  41]+0.001*[#   8]
          
    |psi|^2 = 0.529
==== e(  42) =    36.13530 eV ==== 
     psi = 0.268*[#   4]+0.089*[#  28]+0.069*[#  15]+0.059*[#  30]+0.055*[#  33]
          +0.034*[#   2]+0.015*[#  12]+0.002*[#  42]
    |psi|^2 = 0.592
==== e(  43) =    36.70122 eV ==== 
     psi = 0.254*[#  12]+0.065*[#  30]+0.065*[#  33]+0.041*[#  15]+0.034*[#  28]
          +0.011*[#   4]+0.003*[#   6]+0.002*[#   2]+0.002*[#  37]+0.001*[#  19]
          
    |psi|^2 = 0.479
==== e(  44) =    36.79531 eV ==== 
     psi = 0.276*[#   3]+0.130*[#  32]+0.062*[#  27]+0.036*[#   1]+0.030*[#  11]
          +0.003*[#  29]+0.001*[#  14]
    |psi|^2 = 0.541
==== e(  45) =    36.87317 eV ==== 
     psi = 0.154*[#  16]+0.022*[#  34]+0.002*[#  10]+0.001*[#  43]
    |psi|^2 = 0.180
==== e(  46) =    37.27323 eV ==== 
     psi = 0.109*[#  28]+0.039*[#   4]+0.033*[#  15]+0.022*[#  33]+0.019*[#  12]
          +0.011*[#   2]+0.008*[#  30]
    |psi|^2 = 0.241
==== e(  47) =    37.30848 eV ==== 
     psi = 0.168*[#  13]+0.015*[#  31]+0.002*[#   7]+0.001*[#  22]+0.001*[#  40]
          
    |psi|^2 = 0.188
==== e(  48) =    37.39162 eV ==== 
     psi = 0.168*[#  27]+0.041*[#  14]+0.036*[#  11]+0.004*[#  29]+0.002*[#   1]
          +0.001*[#   3]+0.001*[#  32]
    |psi|^2 = 0.254
==== e(  49) =    38.75969 eV ==== 
 
    |psi|^2 = 0.002
==== e(  50) =    38.76453 eV ==== 
     psi = 0.001*[#  13]
    |psi|^2 = 0.002
==== e(  51) =    43.62076 eV ==== 
     psi = 0.107*[#   4]+0.068*[#  28]+0.062*[#  30]+0.023*[#  33]+0.022*[#   2]
          +0.020*[#  12]+0.009*[#  15]
    |psi|^2 = 0.311
==== e(  52) =    44.25828 eV ==== 
     psi = 0.109*[#   3]+0.073*[#  27]+0.064*[#  29]+0.025*[#  11]+0.020*[#   1]
          +0.017*[#  32]+0.011*[#  14]
    |psi|^2 = 0.321
==== e(  53) =    46.19004 eV ==== 
     psi = 0.012*[#  11]+0.010*[#  32]+0.009*[#  14]+0.006*[#  29]+0.002*[#   3]
          +0.001*[#  27]
    |psi|^2 = 0.042
==== e(  54) =    46.25526 eV ==== 
     psi = 0.021*[#  16]+0.015*[#  34]
    |psi|^2 = 0.036
==== e(  55) =    46.30931 eV ==== 
     psi = 0.016*[#  12]+0.012*[#  33]+0.010*[#  15]+0.009*[#  30]+0.002*[#   4]
          
    |psi|^2 = 0.051
==== e(  56) =    46.40155 eV ==== 
     psi = 0.025*[#  13]+0.018*[#  31]
    |psi|^2 = 0.043
==== e(  57) =    48.77216 eV ==== 
 
    |psi|^2 = 0.000
==== e(  58) =    48.91862 eV ==== 
 
    |psi|^2 = 0.001
==== e(  59) =    50.77135 eV ==== 
     psi = 0.012*[#  28]+0.011*[#   4]+0.004*[#  30]+0.003*[#  12]+0.002*[#   2]
          +0.002*[#  15]+0.002*[#  33]
    |psi|^2 = 0.036
==== e(  60) =    50.80788 eV ==== 
     psi = 0.014*[#  27]+0.011*[#   3]+0.006*[#  29]+0.004*[#  11]+0.003*[#  14]
          +0.002*[#   1]+0.002*[#  32]
    |psi|^2 = 0.042
==== e(  61) =    51.08071 eV ==== 
 
    |psi|^2 = 0.000
==== e(  62) =    51.45511 eV ==== 
     psi = 0.010*[#  11]+0.005*[#  32]+0.004*[#  14]+0.003*[#  29]
    |psi|^2 = 0.023
==== e(  63) =    51.50089 eV ==== 
     psi = 0.011*[#  12]+0.006*[#  33]+0.004*[#  15]+0.004*[#  30]
    |psi|^2 = 0.026
==== e(  64) =    51.52043 eV ==== 
     psi = 0.017*[#  16]+0.010*[#  34]
    |psi|^2 = 0.026
==== e(  65) =    51.57264 eV ==== 
     psi = 0.018*[#  13]+0.012*[#  31]
    |psi|^2 = 0.030
==== e(  66) =    51.67795 eV ==== 
 
    |psi|^2 = 0.001
==== e(  67) =    55.27535 eV ==== 
     psi = 0.103*[#  29]+0.093*[#  32]+0.067*[#  11]+0.035*[#  14]+0.007*[#   3]
          +0.002*[#   1]+0.001*[#  27]+0.001*[#   5]
    |psi|^2 = 0.310
==== e(  68) =    55.81705 eV ==== 
     psi = 0.036*[#  33]+0.030*[#  30]+0.026*[#  12]+0.013*[#  15]+0.007*[#   4]
          +0.002*[#   2]
    |psi|^2 = 0.114
==== e(  69) =    55.98276 eV ==== 
 
    |psi|^2 = 0.002
==== e(  70) =    56.03920 eV ==== 
     psi = 0.005*[#  34]+0.003*[#  16]
    |psi|^2 = 0.008
==== e(  71) =    56.05330 eV ==== 
     psi = 0.071*[#  30]+0.052*[#  33]+0.049*[#  12]+0.023*[#  15]+0.002*[#  28]
          
    |psi|^2 = 0.198
==== e(  72) =    56.19613 eV ==== 
     psi = 0.005*[#   3]+0.002*[#  29]
    |psi|^2 = 0.008
==== e(  73) =    56.32748 eV ==== 
 
    |psi|^2 = 0.000
==== e(  74) =    56.63844 eV ==== 
     psi = 0.080*[#  34]+0.032*[#  16]
    |psi|^2 = 0.113
==== e(  75) =    56.75166 eV ==== 
     psi = 0.169*[#  34]+0.065*[#  16]+0.001*[#  10]
    |psi|^2 = 0.236
==== e(  76) =    57.44434 eV ==== 
     psi = 0.237*[#  31]+0.110*[#  13]+0.002*[#   7]
    |psi|^2 = 0.349
==== e(  77) =    62.67222 eV ==== 
     psi = 0.005*[#  28]+0.004*[#  15]+0.003*[#   4]+0.002*[#  33]
    |psi|^2 = 0.015
==== e(  78) =    62.77572 eV ==== 
     psi = 0.010*[#  14]+0.008*[#  11]+0.001*[#  27]
    |psi|^2 = 0.020
==== e(  79) =    63.10789 eV ==== 
     psi = 0.009*[#  11]+0.004*[#  27]+0.003*[#  32]+0.002*[#   3]
    |psi|^2 = 0.018
==== e(  80) =    63.57894 eV ==== 
     psi = 0.021*[#  12]+0.009*[#  15]
    |psi|^2 = 0.032
==== e(  81) =    64.14862 eV ==== 
     psi = 0.023*[#  16]
    |psi|^2 = 0.023
==== e(  82) =    64.82278 eV ==== 
     psi = 0.029*[#  13]
    |psi|^2 = 0.030
==== e(  83) =    67.08732 eV ==== 
     psi = 0.009*[#   4]+0.009*[#  33]+0.008*[#  28]+0.003*[#  15]+0.002*[#   2]
          
    |psi|^2 = 0.031
==== e(  84) =    67.35443 eV ==== 
     psi = 0.010*[#  27]+0.009*[#   3]+0.008*[#  32]+0.004*[#  14]+0.002*[#   1]
          
    |psi|^2 = 0.033
==== e(  85) =    68.79478 eV ==== 
 
    |psi|^2 = 0.000
==== e(  86) =    69.53761 eV ==== 
 
    |psi|^2 = 0.001
==== e(  87) =    69.62447 eV ==== 
     psi = 0.004*[#  32]+0.003*[#  29]
    |psi|^2 = 0.009
==== e(  88) =    69.81528 eV ==== 
     psi = 0.003*[#  33]+0.003*[#  30]
    |psi|^2 = 0.008
==== e(  89) =    70.09326 eV ==== 
     psi = 0.034*[#  34]
    |psi|^2 = 0.035
==== e(  90) =    70.24702 eV ==== 
     psi = 0.035*[#  31]
    |psi|^2 = 0.036
==== e(  91) =    73.95291 eV ==== 
     psi = 0.005*[#  28]+0.002*[#   4]+0.002*[#  33]
    |psi|^2 = 0.010
==== e(  92) =    74.49346 eV ==== 
     psi = 0.006*[#  27]+0.002*[#   3]+0.001*[#  32]
    |psi|^2 = 0.012
==== e(  93) =    74.92056 eV ==== 
     psi = 0.017*[#  28]+0.007*[#   4]+0.006*[#  15]+0.004*[#  33]+0.003*[#  12]
          +0.002*[#   2]+0.001*[#  30]
    |psi|^2 = 0.039
==== e(  94) =    75.03288 eV ==== 
     psi = 0.017*[#  27]+0.008*[#   3]+0.006*[#  14]+0.004*[#  32]+0.003*[#  11]
          +0.002*[#   1]+0.001*[#  29]
    |psi|^2 = 0.040
==== e(  95) =    77.38127 eV ==== 
 
    |psi|^2 = 0.001
==== e(  96) =    77.45669 eV ==== 
     psi = 0.001*[#  16]
    |psi|^2 = 0.002
==== e(  97) =    77.51766 eV ==== 
 
    |psi|^2 = 0.000
==== e(  98) =    77.73842 eV ==== 
 
    |psi|^2 = 0.001

 k =   0.0000000000  0.0000000000 -0.3609624968
==== e(   1) =   -71.96543 eV ==== 
     psi = 0.823*[#   2]+0.118*[#  33]+0.040*[#  30]+0.018*[#   4]
    |psi|^2 = 1.000
==== e(   2) =   -68.38093 eV ==== 
     psi = 0.823*[#   1]+0.119*[#  32]+0.041*[#  29]+0.017*[#   3]
    |psi|^2 = 1.000
==== e(   3) =   -38.53293 eV ==== 
     psi = 0.809*[#   5]+0.176*[#   8]+0.007*[#  11]+0.007*[#  14]
    |psi|^2 = 1.000
==== e(   4) =   -38.33249 eV ==== 
     psi = 0.529*[#   6]+0.450*[#   9]+0.011*[#  28]+0.009*[#  15]+0.001*[#  12]
          
    |psi|^2 = 1.000
==== e(   5) =   -37.36954 eV ==== 
     psi = 0.985*[#  10]+0.014*[#  16]+0.001*[#  43]
    |psi|^2 = 1.000
==== e(   6) =   -34.76983 eV ==== 
     psi = 0.531*[#   9]+0.456*[#   6]+0.010*[#  12]+0.002*[#  15]
    |psi|^2 = 1.000
==== e(   7) =   -34.41739 eV ==== 
     psi = 0.804*[#   8]+0.174*[#   5]+0.011*[#  27]+0.006*[#  11]+0.006*[#  14]
          
    |psi|^2 = 1.000
==== e(   8) =   -33.90496 eV ==== 
     psi = 0.987*[#   7]+0.012*[#  13]+0.001*[#  40]
    |psi|^2 = 1.000
==== e(   9) =     9.31966 eV ==== 
     psi = 0.412*[#  15]+0.201*[#  12]+0.188*[#  28]+0.096*[#  42]+0.087*[#  37]
          +0.010*[#   9]+0.005*[#   6]
    |psi|^2 = 0.998
==== e(  10) =     9.38439 eV ==== 
     psi = 0.413*[#  14]+0.201*[#  11]+0.196*[#  27]+0.090*[#  41]+0.082*[#  36]
          +0.012*[#   8]+0.006*[#   5]
    |psi|^2 = 0.999
==== e(  11) =    11.21087 eV ==== 
     psi = 0.335*[#  33]+0.298*[#   4]+0.175*[#  30]+0.085*[#  24]+0.054*[#   2]
          +0.052*[#  19]
    |psi|^2 = 0.999
==== e(  12) =    11.29509 eV ==== 
     psi = 0.544*[#  35]+0.386*[#  44]+0.070*[#  40]
    |psi|^2 = 0.999
==== e(  13) =    11.54486 eV ==== 
     psi = 0.550*[#  38]+0.385*[#  39]+0.064*[#  43]
    |psi|^2 = 0.999
==== e(  14) =    11.63729 eV ==== 
     psi = 0.377*[#  32]+0.306*[#   3]+0.200*[#  29]+0.065*[#   1]+0.035*[#  23]
          +0.016*[#  18]
    |psi|^2 = 0.999
==== e(  15) =    13.41775 eV ==== 
     psi = 0.464*[#  26]+0.432*[#  17]+0.101*[#  22]
    |psi|^2 = 0.996
==== e(  16) =    13.83636 eV ==== 
     psi = 0.772*[#  37]+0.079*[#  42]+0.063*[#  15]+0.054*[#  12]+0.028*[#  28]
          +0.002*[#   6]+0.001*[#   9]
    |psi|^2 = 0.998
==== e(  17) =    13.90392 eV ==== 
     psi = 0.866*[#  36]+0.047*[#  11]+0.043*[#  14]+0.023*[#  27]+0.017*[#  41]
          +0.002*[#   5]+0.001*[#   8]
    |psi|^2 = 0.998
==== e(  18) =    14.29771 eV ==== 
     psi = 0.485*[#  24]+0.376*[#  19]+0.049*[#  33]+0.047*[#   4]+0.033*[#  30]
          +0.007*[#   2]
    |psi|^2 = 0.998
==== e(  19) =    14.61342 eV ==== 
     psi = 0.640*[#  18]+0.356*[#  23]+0.002*[#  29]+0.001*[#  32]
    |psi|^2 = 0.999
==== e(  20) =    14.70355 eV ==== 
     psi = 0.767*[#  25]+0.231*[#  20]
    |psi|^2 = 0.999
==== e(  21) =    15.10832 eV ==== 
     psi = 0.534*[#  26]+0.382*[#  17]+0.084*[#  22]
    |psi|^2 = 1.000
==== e(  22) =    15.17611 eV ==== 
     psi = 0.655*[#  43]+0.258*[#  38]+0.078*[#  39]+0.009*[#  16]
    |psi|^2 = 1.000
==== e(  23) =    15.19760 eV ==== 
     psi = 0.888*[#  41]+0.047*[#  14]+0.046*[#  36]+0.012*[#  27]+0.004*[#  11]
          +0.002*[#   8]
    |psi|^2 = 0.999
==== e(  24) =    15.29411 eV ==== 
     psi = 0.820*[#  42]+0.135*[#  37]+0.035*[#  15]+0.007*[#  28]+0.001*[#   9]
          
    |psi|^2 = 0.999
==== e(  25) =    15.37125 eV ==== 
     psi = 0.544*[#  40]+0.319*[#  35]+0.128*[#  44]+0.008*[#  13]
    |psi|^2 = 0.999
==== e(  26) =    15.61115 eV ==== 
     psi = 0.474*[#  21]+0.383*[#  20]+0.128*[#  25]
    |psi|^2 = 0.984
==== e(  27) =    16.48706 eV ==== 
     psi = 0.485*[#  44]+0.377*[#  40]+0.135*[#  35]+0.002*[#  13]
    |psi|^2 = 0.999
==== e(  28) =    16.68854 eV ==== 
     psi = 0.536*[#  39]+0.272*[#  43]+0.190*[#  38]+0.001*[#  16]
    |psi|^2 = 0.999
==== e(  29) =    17.17333 eV ==== 
     psi = 0.600*[#  23]+0.336*[#  18]+0.018*[#   3]+0.016*[#  32]+0.015*[#  29]
          +0.002*[#   1]
    |psi|^2 = 0.987
==== e(  30) =    17.47443 eV ==== 
     psi = 0.562*[#  19]+0.424*[#  24]+0.005*[#  30]+0.004*[#  33]
    |psi|^2 = 0.996
==== e(  31) =    17.57525 eV ==== 
     psi = 0.809*[#  22]+0.184*[#  17]+0.002*[#  31]
    |psi|^2 = 0.995
==== e(  32) =    18.51192 eV ==== 
     psi = 0.517*[#  21]+0.379*[#  20]+0.103*[#  25]
    |psi|^2 = 0.999
==== e(  33) =    32.50934 eV ==== 
     psi = 0.501*[#  29]+0.207*[#  32]+0.007*[#   3]+0.004*[#  18]
    |psi|^2 = 0.719
==== e(  34) =    32.67608 eV ==== 
     psi = 0.393*[#  30]+0.198*[#  33]+0.009*[#  19]+0.001*[#  24]
    |psi|^2 = 0.602
==== e(  35) =    33.15374 eV ==== 
     psi = 0.133*[#  30]+0.047*[#   4]+0.007*[#  33]+0.007*[#   2]+0.004*[#  24]
          
    |psi|^2 = 0.197
==== e(  36) =    33.22167 eV ==== 
     psi = 0.002*[#  26]+0.001*[#  17]
    |psi|^2 = 0.004
==== e(  37) =    33.50133 eV ==== 
     psi = 0.040*[#   3]+0.014*[#  29]+0.008*[#  23]+0.007*[#   1]+0.006*[#  32]
          +0.003*[#  18]
    |psi|^2 = 0.079
==== e(  38) =    33.79574 eV ==== 
     psi = 0.008*[#  21]+0.006*[#  20]+0.001*[#  25]
    |psi|^2 = 0.016
==== e(  39) =    34.05674 eV ==== 
     psi = 0.326*[#  34]
    |psi|^2 = 0.327
==== e(  40) =    34.13636 eV ==== 
     psi = 0.558*[#  11]+0.266*[#  14]+0.008*[#   5]+0.004*[#  36]+0.004*[#   8]
          +0.003*[#  41]
    |psi|^2 = 0.844
==== e(  41) =    34.34128 eV ==== 
     psi = 0.333*[#  31]+0.005*[#  22]+0.001*[#  17]
    |psi|^2 = 0.339
==== e(  42) =    34.44394 eV ==== 
     psi = 0.821*[#  16]+0.012*[#  10]+0.007*[#  43]+0.001*[#  38]
    |psi|^2 = 0.841
==== e(  43) =    34.78368 eV ==== 
     psi = 0.546*[#  12]+0.255*[#  15]+0.007*[#   6]+0.005*[#  37]+0.003*[#   9]
          +0.003*[#  42]
    |psi|^2 = 0.820
==== e(  44) =    35.09615 eV ==== 
     psi = 0.800*[#  13]+0.010*[#   7]+0.007*[#  40]+0.001*[#  35]
    |psi|^2 = 0.819
==== e(  45) =    36.94992 eV ==== 
     psi = 0.232*[#  28]+0.042*[#  15]+0.042*[#  12]
    |psi|^2 = 0.316
==== e(  46) =    37.03791 eV ==== 
     psi = 0.095*[#  27]+0.025*[#  11]+0.018*[#  14]
    |psi|^2 = 0.138
==== e(  47) =    37.90299 eV ==== 
     psi = 0.390*[#  28]+0.089*[#  15]+0.017*[#  12]+0.001*[#   9]+0.001*[#  42]
          
    |psi|^2 = 0.499
==== e(  48) =    38.63070 eV ==== 
     psi = 0.511*[#  27]+0.112*[#  14]+0.037*[#  11]
    |psi|^2 = 0.662
==== e(  49) =    39.45233 eV ==== 
 
    |psi|^2 = 0.002
==== e(  50) =    39.52494 eV ==== 
 
    |psi|^2 = 0.001
==== e(  51) =    39.84052 eV ==== 
     psi = 0.492*[#   4]+0.126*[#  33]+0.087*[#   2]+0.066*[#  30]
    |psi|^2 = 0.771
==== e(  52) =    40.39566 eV ==== 
     psi = 0.502*[#   3]+0.107*[#  32]+0.081*[#   1]+0.068*[#  29]
    |psi|^2 = 0.758
==== e(  53) =    47.62168 eV ==== 
     psi = 0.012*[#  30]+0.011*[#  33]+0.001*[#   4]
    |psi|^2 = 0.025
==== e(  54) =    47.70117 eV ==== 
     psi = 0.010*[#  29]+0.009*[#  32]+0.001*[#   3]
    |psi|^2 = 0.021
==== e(  55) =    47.72592 eV ==== 
     psi = 0.029*[#  31]
    |psi|^2 = 0.029
==== e(  56) =    47.78983 eV ==== 
     psi = 0.024*[#  34]
    |psi|^2 = 0.024
==== e(  57) =    48.88207 eV ==== 
     psi = 0.023*[#  11]+0.012*[#  14]
    |psi|^2 = 0.035
==== e(  58) =    48.90701 eV ==== 
     psi = 0.037*[#  16]
    |psi|^2 = 0.038
==== e(  59) =    49.06304 eV ==== 
     psi = 0.026*[#  12]+0.014*[#  15]
    |psi|^2 = 0.040
==== e(  60) =    49.09000 eV ==== 
     psi = 0.042*[#  13]
    |psi|^2 = 0.043
==== e(  61) =    49.25570 eV ==== 
 
    |psi|^2 = 0.000
==== e(  62) =    49.43897 eV ==== 
 
    |psi|^2 = 0.000
==== e(  63) =    50.87921 eV ==== 
 
    |psi|^2 = 0.000
==== e(  64) =    51.53553 eV ==== 
 
    |psi|^2 = 0.001
==== e(  65) =    52.75943 eV ==== 
     psi = 0.026*[#   4]+0.006*[#  33]+0.004*[#   2]+0.003*[#  30]
    |psi|^2 = 0.039
==== e(  66) =    53.17202 eV ==== 
     psi = 0.032*[#   3]+0.006*[#  32]+0.005*[#   1]+0.004*[#  29]
    |psi|^2 = 0.047
==== e(  67) =    54.03976 eV ==== 
 
    |psi|^2 = 0.000
==== e(  68) =    54.05692 eV ==== 
 
    |psi|^2 = 0.000
==== e(  69) =    56.15473 eV ==== 
     psi = 0.017*[#  27]+0.003*[#  11]+0.001*[#  14]
    |psi|^2 = 0.021
==== e(  70) =    56.30196 eV ==== 
     psi = 0.015*[#  28]+0.002*[#  12]
    |psi|^2 = 0.019
==== e(  71) =    56.94929 eV ==== 
 
    |psi|^2 = 0.000
==== e(  72) =    57.23309 eV ==== 
 
    |psi|^2 = 0.000
==== e(  73) =    57.74686 eV ==== 
     psi = 0.075*[#  29]+0.069*[#  32]+0.008*[#   3]+0.003*[#   1]
    |psi|^2 = 0.155
==== e(  74) =    58.33712 eV ==== 
     psi = 0.070*[#  30]+0.063*[#  33]+0.006*[#   4]+0.002*[#   2]
    |psi|^2 = 0.142
==== e(  75) =    59.98617 eV ==== 
     psi = 0.194*[#  34]
    |psi|^2 = 0.194
==== e(  76) =    60.47441 eV ==== 
     psi = 0.045*[#  11]+0.025*[#  14]
    |psi|^2 = 0.072
==== e(  77) =    60.62230 eV ==== 
     psi = 0.178*[#  31]
    |psi|^2 = 0.179
==== e(  78) =    60.81809 eV ==== 
     psi = 0.070*[#  16]+0.001*[#  10]
    |psi|^2 = 0.072
==== e(  79) =    61.27446 eV ==== 
     psi = 0.054*[#  12]+0.029*[#  15]
    |psi|^2 = 0.085
==== e(  80) =    61.62505 eV ==== 
     psi = 0.084*[#  13]+0.001*[#   7]
    |psi|^2 = 0.085
==== e(  81) =    63.67855 eV ==== 
 
    |psi|^2 = 0.002
==== e(  82) =    63.88050 eV ==== 
     psi = 0.003*[#   3]
    |psi|^2 = 0.003
==== e(  83) =    64.91398 eV ==== 
     psi = 0.020*[#  28]+0.004*[#  15]+0.002*[#  12]
    |psi|^2 = 0.026
==== e(  84) =    65.35228 eV ==== 
     psi = 0.024*[#  27]+0.006*[#  14]+0.003*[#  11]
    |psi|^2 = 0.033
==== e(  85) =    67.98660 eV ==== 
 
    |psi|^2 = 0.000
==== e(  86) =    68.85595 eV ==== 
 
    |psi|^2 = 0.000
==== e(  87) =    71.92770 eV ==== 
     psi = 0.002*[#  29]+0.002*[#  32]
    |psi|^2 = 0.004
==== e(  88) =    72.30362 eV ==== 
     psi = 0.002*[#  30]+0.002*[#  33]
    |psi|^2 = 0.004
==== e(  89) =    72.51324 eV ==== 
     psi = 0.029*[#  34]
    |psi|^2 = 0.029
==== e(  90) =    72.85363 eV ==== 
     psi = 0.029*[#  31]
    |psi|^2 = 0.030
==== e(  91) =    75.14799 eV ==== 
 
    |psi|^2 = 0.001
==== e(  92) =    75.37273 eV ==== 
 
    |psi|^2 = 0.000
==== e(  93) =    76.89947 eV ==== 
 
    |psi|^2 = 0.000
==== e(  94) =    76.92255 eV ==== 
 
    |psi|^2 = 0.000
==== e(  95) =    76.95413 eV ==== 
 
    |psi|^2 = 0.000
==== e(  96) =    76.98680 eV ==== 
 
    |psi|^2 = 0.000
==== e(  97) =    77.16710 eV ==== 
     psi = 0.001*[#  30]
    |psi|^2 = 0.003
==== e(  98) =    77.33816 eV ==== 
 
    |psi|^2 = 0.000

 k =   0.0000000000  0.1111111111  0.0000000000
==== e(   1) =   -71.96446 eV ==== 
     psi = 0.915*[#   2]+0.027*[#  34]+0.012*[#  16]+0.012*[#  28]+0.011*[#  29]
          +0.009*[#  32]+0.008*[#  11]+0.004*[#  14]
    |psi|^2 = 1.000
==== e(   2) =   -68.37991 eV ==== 
     psi = 0.914*[#   1]+0.027*[#  31]+0.012*[#  13]+0.012*[#  27]+0.011*[#  30]
          +0.009*[#  33]+0.008*[#  12]+0.004*[#  15]
    |psi|^2 = 1.000
==== e(   3) =   -38.53730 eV ==== 
     psi = 0.809*[#   5]+0.176*[#   8]+0.008*[#  11]+0.003*[#  14]+0.001*[#   4]
          +0.001*[#  28]
    |psi|^2 = 1.000
==== e(   4) =   -38.32826 eV ==== 
     psi = 0.533*[#   6]+0.456*[#   9]+0.004*[#  30]+0.003*[#  33]+0.002*[#  12]
          
    |psi|^2 = 1.000
==== e(   5) =   -37.37438 eV ==== 
     psi = 0.986*[#  10]+0.010*[#  16]+0.001*[#   4]+0.001*[#  28]
    |psi|^2 = 1.000
==== e(   6) =   -34.77480 eV ==== 
     psi = 0.534*[#   9]+0.454*[#   6]+0.005*[#  12]+0.004*[#  15]+0.001*[#   3]
          +0.001*[#  27]
    |psi|^2 = 1.000
==== e(   7) =   -34.41173 eV ==== 
     psi = 0.814*[#   8]+0.177*[#   5]+0.003*[#  29]+0.003*[#  32]+0.002*[#  14]
          
    |psi|^2 = 1.000
==== e(   8) =   -33.91065 eV ==== 
     psi = 0.987*[#   7]+0.009*[#  13]+0.001*[#   3]+0.001*[#  27]
    |psi|^2 = 1.000
==== e(   9) =     7.81486 eV ==== 
     psi = 0.336*[#  28]+0.332*[#   4]+0.082*[#  34]+0.066*[#  16]+0.043*[#  29]
          +0.042*[#  11]+0.038*[#   2]+0.027*[#  32]+0.022*[#  14]+0.003*[#  42]
          +0.002*[#  37]+0.002*[#  24]+0.001*[#  19]
    |psi|^2 = 0.999
==== e(  10) =     7.94311 eV ==== 
     psi = 0.348*[#  27]+0.318*[#   3]+0.082*[#  31]+0.067*[#  13]+0.043*[#  30]
          +0.042*[#  12]+0.040*[#   1]+0.027*[#  33]+0.022*[#  15]+0.003*[#  41]
          +0.002*[#  36]+0.001*[#  23]
    |psi|^2 = 0.999
==== e(  11) =    10.86563 eV ==== 
     psi = 0.300*[#  37]+0.266*[#  42]+0.163*[#  24]+0.094*[#  19]+0.053*[#  35]
          +0.040*[#   4]+0.040*[#  44]+0.009*[#  26]+0.008*[#  28]+0.008*[#  40]
          +0.007*[#  17]+0.004*[#  16]+0.002*[#  11]+0.002*[#  22]+0.002*[#  14]
          +0.001*[#   2]
    |psi|^2 = 0.999
==== e(  12) =    11.09239 eV ==== 
     psi = 0.396*[#  35]+0.285*[#  44]+0.070*[#  26]+0.052*[#  40]+0.048*[#  17]
          +0.039*[#  37]+0.032*[#  42]+0.025*[#  24]+0.016*[#  22]+0.014*[#  19]
          +0.006*[#  16]+0.004*[#  34]+0.004*[#  29]+0.003*[#  11]+0.002*[#  14]
          +0.002*[#  28]+0.002*[#  32]+0.001*[#   4]
    |psi|^2 = 0.999
==== e(  13) =    11.36272 eV ==== 
     psi = 0.248*[#  36]+0.230*[#  38]+0.183*[#  41]+0.163*[#  39]+0.055*[#  23]
          +0.031*[#   3]+0.028*[#  43]+0.019*[#  18]+0.017*[#  21]+0.010*[#  20]
          +0.006*[#  27]+0.006*[#  25]
    |psi|^2 = 0.998
==== e(  14) =    11.52376 eV ==== 
     psi = 0.278*[#  38]+0.212*[#  36]+0.187*[#  39]+0.141*[#  41]+0.052*[#  23]
          +0.027*[#  43]+0.020*[#  21]+0.016*[#  18]+0.013*[#   3]+0.010*[#  20]
          +0.009*[#  13]+0.008*[#  25]+0.006*[#  27]+0.005*[#  12]+0.004*[#  31]
          +0.004*[#  15]+0.004*[#  30]+0.002*[#  33]
    |psi|^2 = 0.999
==== e(  15) =    13.45383 eV ==== 
     psi = 0.338*[#  18]+0.242*[#  41]+0.185*[#  36]+0.107*[#  23]+0.048*[#  43]
          +0.044*[#  25]+0.017*[#  20]+0.009*[#  38]+0.003*[#  39]+0.002*[#  12]
          +0.001*[#   3]
    |psi|^2 = 0.999
==== e(  16) =    13.76416 eV ==== 
     psi = 0.385*[#  25]+0.265*[#  43]+0.144*[#  20]+0.067*[#  38]+0.053*[#  18]
          +0.026*[#  41]+0.024*[#  36]+0.019*[#  23]+0.014*[#  39]+0.001*[#  21]
          
    |psi|^2 = 1.000
==== e(  17) =    14.01386 eV ==== 
     psi = 0.471*[#  17]+0.255*[#  26]+0.196*[#  35]+0.052*[#  22]+0.009*[#  44]
          +0.005*[#  42]+0.003*[#  24]+0.003*[#  40]+0.002*[#  11]
    |psi|^2 = 0.999
==== e(  18) =    14.18310 eV ==== 
     psi = 0.516*[#  37]+0.253*[#  19]+0.135*[#  42]+0.041*[#  40]+0.013*[#  24]
          +0.009*[#  22]+0.006*[#  26]+0.006*[#  35]+0.006*[#  14]+0.005*[#  44]
          +0.004*[#  11]+0.002*[#  29]+0.002*[#  32]
    |psi|^2 = 0.999
==== e(  19) =    14.79421 eV ==== 
     psi = 0.468*[#  26]+0.155*[#  44]+0.136*[#  17]+0.118*[#  40]+0.083*[#  35]
          +0.019*[#  37]+0.013*[#  19]+0.003*[#  22]+0.002*[#  42]
    |psi|^2 = 0.999
==== e(  20) =    14.97625 eV ==== 
     psi = 0.400*[#  40]+0.253*[#  22]+0.127*[#  26]+0.082*[#  17]+0.036*[#  19]
          +0.034*[#  35]+0.029*[#  24]+0.020*[#  37]+0.011*[#  42]+0.003*[#  14]
          +0.002*[#  11]+0.001*[#  29]
    |psi|^2 = 0.999
==== e(  21) =    15.22881 eV ==== 
     psi = 0.434*[#  24]+0.430*[#  42]+0.063*[#  19]+0.025*[#  40]+0.017*[#  22]
          +0.015*[#  26]+0.013*[#  35]
    |psi|^2 = 0.999
==== e(  22) =    15.61315 eV ==== 
     psi = 0.180*[#  25]+0.139*[#  23]+0.131*[#  38]+0.119*[#  36]+0.115*[#  18]
          +0.089*[#  41]+0.056*[#  39]+0.056*[#  43]+0.036*[#  15]+0.032*[#  12]
          +0.025*[#  30]+0.012*[#  33]+0.005*[#  21]+0.002*[#  20]
    |psi|^2 = 0.999
==== e(  23) =    15.97990 eV ==== 
     psi = 0.226*[#  38]+0.154*[#  39]+0.131*[#  20]+0.119*[#  25]+0.093*[#  23]
          +0.075*[#  36]+0.065*[#  21]+0.046*[#  41]+0.044*[#  18]+0.030*[#  43]
          +0.008*[#  15]+0.003*[#  33]
    |psi|^2 = 0.997
==== e(  24) =    16.34391 eV ==== 
     psi = 0.493*[#  44]+0.196*[#  35]+0.148*[#  40]+0.112*[#  17]+0.045*[#  26]
          +0.002*[#  22]+0.001*[#  29]
    |psi|^2 = 0.999
==== e(  25) =    16.38126 eV ==== 
     psi = 0.380*[#  21]+0.257*[#  39]+0.248*[#  20]+0.030*[#  38]+0.018*[#  18]
          +0.016*[#  41]+0.015*[#  43]+0.015*[#  36]+0.006*[#  25]+0.006*[#  23]
          +0.002*[#  13]+0.001*[#  31]
    |psi|^2 = 0.995
==== e(  26) =    16.68861 eV ==== 
     psi = 0.466*[#  43]+0.123*[#  39]+0.118*[#  25]+0.071*[#  20]+0.069*[#  23]
          +0.063*[#  36]+0.029*[#  41]+0.025*[#  21]+0.017*[#  18]+0.009*[#  15]
          +0.003*[#  12]+0.003*[#  33]+0.002*[#  30]
    |psi|^2 = 0.999
==== e(  27) =    17.53382 eV ==== 
     psi = 0.238*[#  19]+0.222*[#  22]+0.148*[#  24]+0.108*[#  14]+0.061*[#  11]
          +0.059*[#  29]+0.044*[#  17]+0.040*[#  32]+0.034*[#  40]+0.019*[#  37]
          +0.016*[#  42]+0.004*[#  44]+0.001*[#  35]
    |psi|^2 = 0.996
==== e(  28) =    17.60977 eV ==== 
     psi = 0.423*[#  23]+0.348*[#  18]+0.177*[#  41]+0.026*[#  36]+0.004*[#   3]
          +0.004*[#  21]+0.003*[#  25]+0.002*[#  43]+0.002*[#  15]+0.002*[#  27]
          +0.002*[#  39]
    |psi|^2 = 0.996
==== e(  29) =    18.56177 eV ==== 
     psi = 0.469*[#  21]+0.352*[#  20]+0.109*[#  25]+0.035*[#  39]+0.016*[#  38]
          +0.014*[#  43]
    |psi|^2 = 0.999
==== e(  30) =    18.63356 eV ==== 
     psi = 0.333*[#  22]+0.230*[#  19]+0.139*[#  24]+0.112*[#  40]+0.075*[#  17]
          +0.047*[#  37]+0.045*[#  42]+0.011*[#  35]+0.002*[#  14]+0.002*[#  44]
          
    |psi|^2 = 0.999
==== e(  31) =    20.14130 eV ==== 
     psi = 0.356*[#  15]+0.205*[#  12]+0.173*[#  30]+0.123*[#  33]+0.046*[#  43]
          +0.020*[#  41]+0.019*[#  25]+0.017*[#  36]+0.014*[#  18]+0.006*[#  23]
          +0.006*[#  38]+0.005*[#  20]+0.001*[#  27]
    |psi|^2 = 0.992
==== e(  32) =    20.77672 eV ==== 
     psi = 0.281*[#  14]+0.165*[#  11]+0.145*[#  29]+0.101*[#  32]+0.087*[#  22]
          +0.057*[#  40]+0.052*[#  19]+0.032*[#  24]+0.022*[#  42]+0.021*[#  37]
          +0.021*[#  17]+0.008*[#  35]+0.001*[#  28]
    |psi|^2 = 0.994
==== e(  33) =    26.03913 eV ==== 
     psi = 0.448*[#   4]+0.411*[#  28]+0.020*[#  42]+0.012*[#  16]+0.011*[#  14]
          +0.009*[#   2]+0.007*[#  37]+0.007*[#  11]+0.006*[#  29]+0.006*[#  24]
          +0.006*[#  34]+0.005*[#  32]+0.002*[#  19]
    |psi|^2 = 0.951
==== e(  34) =    26.74892 eV ==== 
     psi = 0.408*[#   3]+0.360*[#  27]+0.030*[#  13]+0.029*[#  15]+0.027*[#  30]
          +0.019*[#  12]+0.018*[#  31]+0.015*[#  33]+0.012*[#  23]+0.011*[#  41]
          +0.007*[#  18]+0.006*[#   1]+0.005*[#  36]+0.003*[#  21]+0.001*[#  20]
          +0.001*[#  39]
    |psi|^2 = 0.955
==== e(  35) =    27.32152 eV ==== 
     psi = 0.185*[#  16]+0.174*[#  29]+0.172*[#  14]+0.152*[#  11]+0.105*[#  34]
          +0.084*[#  32]+0.018*[#  28]+0.011*[#  42]+0.009*[#   4]+0.006*[#  37]
          +0.004*[#  44]+0.004*[#  24]+0.003*[#  26]+0.002*[#   2]+0.002*[#  10]
          +0.002*[#  17]+0.002*[#  19]+0.002*[#  35]+0.002*[#   8]
    |psi|^2 = 0.938
==== e(  36) =    27.82123 eV ==== 
     psi = 0.169*[#  30]+0.152*[#  15]+0.150*[#  13]+0.132*[#  12]+0.086*[#  31]
          +0.075*[#  33]+0.053*[#  27]+0.043*[#   3]+0.016*[#  23]+0.013*[#  41]
          +0.009*[#  18]+0.007*[#  36]+0.005*[#  21]+0.004*[#  39]+0.003*[#   1]
          +0.002*[#  20]+0.001*[#   9]+0.001*[#  38]+0.001*[#   7]
    |psi|^2 = 0.926
==== e(  37) =    29.49255 eV ==== 
     psi = 0.425*[#  16]+0.178*[#  34]+0.111*[#  14]+0.098*[#  11]+0.079*[#  29]
          +0.034*[#  32]+0.005*[#  10]+0.001*[#   8]
    |psi|^2 = 0.934
==== e(  38) =    29.82511 eV ==== 
     psi = 0.422*[#  13]+0.187*[#  31]+0.104*[#  15]+0.089*[#  12]+0.080*[#  30]
          +0.032*[#  33]+0.004*[#   7]+0.002*[#  20]+0.001*[#   9]
    |psi|^2 = 0.925
==== e(  39) =    35.22640 eV ==== 
     psi = 0.014*[#  32]+0.010*[#  11]+0.009*[#  29]+0.007*[#  14]
    |psi|^2 = 0.042
==== e(  40) =    35.31039 eV ==== 
     psi = 0.016*[#  11]+0.012*[#  34]+0.010*[#  28]+0.006*[#   4]+0.004*[#  29]
          +0.002*[#  32]
    |psi|^2 = 0.054
==== e(  41) =    35.35169 eV ==== 
     psi = 0.012*[#  33]+0.009*[#  12]+0.009*[#  30]+0.007*[#  15]
    |psi|^2 = 0.038
==== e(  42) =    35.85680 eV ==== 
     psi = 0.024*[#  12]+0.012*[#  31]+0.011*[#  27]+0.006*[#  30]+0.005*[#   3]
          +0.004*[#  21]+0.003*[#  20]+0.003*[#  33]+0.002*[#  13]
    |psi|^2 = 0.072
==== e(  43) =    38.17258 eV ==== 
     psi = 0.061*[#  29]+0.054*[#  11]+0.028*[#   4]+0.021*[#  28]+0.013*[#  34]
          +0.008*[#  32]+0.007*[#  16]+0.006*[#   2]+0.002*[#  14]+0.001*[#   5]
          
    |psi|^2 = 0.203
==== e(  44) =    38.27154 eV ==== 
     psi = 0.063*[#  30]+0.050*[#  12]+0.037*[#   3]+0.011*[#  27]+0.009*[#  31]
          +0.007*[#  33]+0.006*[#   1]+0.003*[#  13]+0.002*[#  15]+0.001*[#   6]
          
    |psi|^2 = 0.189
==== e(  45) =    38.30202 eV ==== 
     psi = 0.027*[#  28]+0.012*[#  16]+0.011*[#  29]+0.009*[#   4]+0.004*[#  34]
          +0.004*[#  14]+0.002*[#  11]
    |psi|^2 = 0.072
==== e(  46) =    38.78096 eV ==== 
     psi = 0.025*[#  27]+0.016*[#  13]+0.010*[#  30]+0.008*[#  31]+0.007*[#   3]
          +0.003*[#  15]+0.002*[#  12]+0.001*[#  33]
    |psi|^2 = 0.075
==== e(  47) =    39.18988 eV ==== 
     psi = 0.017*[#  30]+0.016*[#  27]+0.013*[#  12]+0.005*[#  33]+0.002*[#  15]
          
    |psi|^2 = 0.055
==== e(  48) =    39.41589 eV ==== 
     psi = 0.026*[#  29]+0.020*[#  11]+0.008*[#  28]+0.004*[#  32]+0.001*[#   4]
          
    |psi|^2 = 0.063
==== e(  49) =    40.05464 eV ==== 
     psi = 0.021*[#  32]+0.020*[#  34]+0.003*[#  14]+0.002*[#  11]+0.001*[#  16]
          +0.001*[#  28]
    |psi|^2 = 0.049
==== e(  50) =    40.13056 eV ==== 
     psi = 0.025*[#  31]+0.018*[#  33]+0.004*[#  12]+0.002*[#  27]+0.002*[#  15]
          
    |psi|^2 = 0.055
==== e(  51) =    44.79446 eV ==== 
     psi = 0.030*[#  12]+0.026*[#  30]+0.008*[#  27]+0.004*[#   3]
    |psi|^2 = 0.072
==== e(  52) =    44.79487 eV ==== 
     psi = 0.032*[#  11]+0.032*[#  29]+0.010*[#  28]+0.006*[#   4]
    |psi|^2 = 0.083
==== e(  53) =    45.44734 eV ==== 
 
    |psi|^2 = 0.001
==== e(  54) =    46.03444 eV ==== 
 
    |psi|^2 = 0.003
==== e(  55) =    46.10975 eV ==== 
     psi = 0.005*[#  15]+0.005*[#  12]+0.004*[#  30]+0.004*[#  33]
    |psi|^2 = 0.018
==== e(  56) =    46.52359 eV ==== 
     psi = 0.007*[#  11]+0.007*[#  29]+0.005*[#  14]+0.003*[#  32]
    |psi|^2 = 0.024
==== e(  57) =    47.56189 eV ==== 
     psi = 0.014*[#  30]+0.012*[#  12]+0.007*[#  27]+0.006*[#   3]+0.004*[#  31]
          +0.003*[#  33]+0.002*[#   1]+0.002*[#  15]+0.001*[#  13]
    |psi|^2 = 0.052
==== e(  58) =    47.57575 eV ==== 
     psi = 0.015*[#  29]+0.013*[#  11]+0.006*[#  28]+0.005*[#   4]+0.004*[#  32]
          +0.004*[#  34]+0.002*[#  14]+0.002*[#   2]
    |psi|^2 = 0.052
==== e(  59) =    48.64804 eV ==== 
     psi = 0.081*[#  11]+0.054*[#  29]+0.045*[#  16]+0.027*[#  34]+0.005*[#  14]
          +0.002*[#   5]+0.001*[#  32]+0.001*[#  10]
    |psi|^2 = 0.217
==== e(  60) =    49.38691 eV ==== 
     psi = 0.103*[#  12]+0.068*[#  30]+0.044*[#  13]+0.021*[#  31]+0.004*[#  15]
          +0.002*[#   6]+0.001*[#  27]+0.001*[#   3]
    |psi|^2 = 0.247
==== e(  61) =    51.39220 eV ==== 
     psi = 0.043*[#  11]+0.041*[#  29]+0.036*[#  16]+0.033*[#   4]+0.032*[#  28]
          +0.027*[#  34]+0.007*[#   2]+0.002*[#  32]+0.002*[#  14]
    |psi|^2 = 0.224
==== e(  62) =    51.62772 eV ==== 
     psi = 0.002*[#  12]+0.002*[#  30]+0.002*[#  13]+0.001*[#   3]+0.002*[#  27]
          +0.001*[#  31]
    |psi|^2 = 0.010
==== e(  63) =    51.79063 eV ==== 
     psi = 0.002*[#  11]+0.002*[#  29]+0.002*[#  16]+0.001*[#   4]+0.001*[#  28]
          +0.001*[#  34]
    |psi|^2 = 0.009
==== e(  64) =    51.99771 eV ==== 
     psi = 0.051*[#  30]+0.051*[#  12]+0.041*[#  13]+0.034*[#   3]+0.030*[#  27]
          +0.025*[#  31]+0.006*[#   1]+0.001*[#   6]
    |psi|^2 = 0.240
==== e(  65) =    53.51935 eV ==== 
     psi = 0.104*[#  33]+0.070*[#  15]+0.044*[#  30]+0.022*[#  12]+0.004*[#  31]
          +0.003*[#   3]+0.003*[#  13]+0.002*[#  27]+0.001*[#   9]
    |psi|^2 = 0.254
==== e(  66) =    54.12748 eV ==== 
     psi = 0.068*[#  32]+0.060*[#  14]+0.052*[#  29]+0.036*[#  11]+0.003*[#  34]
          +0.001*[#  16]
    |psi|^2 = 0.224
==== e(  67) =    54.75838 eV ==== 
     psi = 0.033*[#  33]+0.011*[#  30]+0.006*[#  15]+0.001*[#  31]
    |psi|^2 = 0.055
==== e(  68) =    54.78500 eV ==== 
     psi = 0.043*[#  32]+0.024*[#  29]+0.011*[#  14]+0.005*[#  11]+0.002*[#  34]
          
    |psi|^2 = 0.088
==== e(  69) =    56.51534 eV ==== 
     psi = 0.027*[#  32]+0.010*[#  34]+0.006*[#  14]+0.003*[#  16]+0.002*[#  29]
          
    |psi|^2 = 0.048
==== e(  70) =    57.01387 eV ==== 
     psi = 0.011*[#  34]+0.003*[#   4]+0.003*[#  16]+0.002*[#  28]+0.002*[#  32]
          
    |psi|^2 = 0.022
==== e(  71) =    57.15726 eV ==== 
     psi = 0.015*[#  33]+0.004*[#  30]+0.004*[#  31]+0.002*[#  13]+0.002*[#  15]
          +0.001*[#  12]
    |psi|^2 = 0.029
==== e(  72) =    57.59952 eV ==== 
     psi = 0.013*[#  31]+0.004*[#  13]+0.002*[#   3]+0.002*[#  27]
    |psi|^2 = 0.021
==== e(  73) =    59.46962 eV ==== 
     psi = 0.005*[#  11]+0.004*[#   4]+0.003*[#  14]+0.002*[#  16]
    |psi|^2 = 0.015
==== e(  74) =    59.67959 eV ==== 
     psi = 0.006*[#   3]+0.005*[#  12]+0.004*[#  15]+0.003*[#  13]
    |psi|^2 = 0.022
==== e(  75) =    60.29818 eV ==== 
     psi = 0.014*[#  16]+0.005*[#  11]+0.003*[#  34]+0.003*[#  14]
    |psi|^2 = 0.027
==== e(  76) =    60.51376 eV ==== 
     psi = 0.016*[#  13]+0.007*[#  12]+0.004*[#  15]+0.004*[#  31]
    |psi|^2 = 0.033
==== e(  77) =    61.32963 eV ==== 
 
    |psi|^2 = 0.000
==== e(  78) =    61.41858 eV ==== 
 
    |psi|^2 = 0.000
==== e(  79) =    62.26121 eV ==== 
     psi = 0.003*[#  33]
    |psi|^2 = 0.004
==== e(  80) =    62.26993 eV ==== 
     psi = 0.003*[#  32]+0.001*[#  14]
    |psi|^2 = 0.004
==== e(  81) =    64.52343 eV ==== 
     psi = 0.006*[#  34]+0.005*[#   4]+0.005*[#  16]+0.002*[#  28]+0.002*[#  14]
          +0.002*[#  32]+0.001*[#  11]
    |psi|^2 = 0.025
==== e(  82) =    64.75693 eV ==== 
     psi = 0.006*[#  31]+0.006*[#   3]+0.006*[#  13]+0.003*[#  27]+0.002*[#  15]
          +0.002*[#  12]+0.001*[#  33]
    |psi|^2 = 0.027
==== e(  83) =    65.87743 eV ==== 
 
    |psi|^2 = 0.001
==== e(  84) =    65.93786 eV ==== 
 
    |psi|^2 = 0.001
==== e(  85) =    66.96383 eV ==== 
     psi = 0.013*[#  16]+0.004*[#  34]+0.004*[#  11]+0.003*[#  14]
    |psi|^2 = 0.027
==== e(  86) =    67.48630 eV ==== 
     psi = 0.014*[#  13]+0.004*[#  12]+0.003*[#  15]+0.003*[#  31]
    |psi|^2 = 0.027
==== e(  87) =    68.47642 eV ==== 
     psi = 0.011*[#  28]+0.005*[#  34]+0.002*[#  16]+0.002*[#  32]+0.002*[#  11]
          +0.001*[#   4]+0.001*[#  14]
    |psi|^2 = 0.026
==== e(  88) =    69.14300 eV ==== 
     psi = 0.012*[#  27]+0.005*[#  31]+0.003*[#  13]+0.002*[#  12]+0.002*[#  33]
          +0.001*[#  15]+0.001*[#  30]
    |psi|^2 = 0.028
==== e(  89) =    69.91703 eV ==== 
     psi = 0.003*[#  11]+0.001*[#  34]
    |psi|^2 = 0.007
==== e(  90) =    69.92589 eV ==== 
     psi = 0.004*[#  12]
    |psi|^2 = 0.007
==== e(  91) =    71.92692 eV ==== 
     psi = 0.011*[#  34]+0.008*[#  32]+0.004*[#  14]+0.003*[#  29]+0.002*[#  11]
          +0.002*[#  16]
    |psi|^2 = 0.030
==== e(  92) =    72.35851 eV ==== 
     psi = 0.009*[#  31]+0.008*[#  33]+0.004*[#  15]+0.003*[#  30]+0.003*[#  12]
          +0.001*[#  13]
    |psi|^2 = 0.028
==== e(  93) =    72.82193 eV ==== 
     psi = 0.029*[#  34]+0.012*[#  16]+0.003*[#  28]+0.003*[#   4]+0.002*[#  29]
          +0.001*[#  32]
    |psi|^2 = 0.052
==== e(  94) =    73.22508 eV ==== 
     psi = 0.032*[#  31]+0.014*[#  13]+0.004*[#  27]+0.003*[#   3]+0.002*[#  30]
          +0.002*[#  33]
    |psi|^2 = 0.060
==== e(  95) =    74.73140 eV ==== 
     psi = 0.044*[#  33]+0.010*[#  15]+0.002*[#  30]
    |psi|^2 = 0.059
==== e(  96) =    75.20516 eV ==== 
     psi = 0.043*[#  32]+0.010*[#  14]+0.002*[#  29]
    |psi|^2 = 0.058
==== e(  97) =    76.59623 eV ==== 
 
    |psi|^2 = 0.000
==== e(  98) =    77.25599 eV ==== 
 
    |psi|^2 = 0.000

 k =   0.0000000000  0.1111111111  0.1203208323
==== e(   1) =   -71.96444 eV ==== 
     psi = 0.898*[#   2]+0.031*[#  33]+0.016*[#  34]+0.013*[#  30]+0.008*[#  16]
          +0.006*[#  29]+0.005*[#  15]+0.005*[#  32]+0.005*[#  11]+0.004*[#  28]
          +0.003*[#   4]+0.002*[#  12]+0.002*[#  14]
    |psi|^2 = 1.000
==== e(   2) =   -68.37988 eV ==== 
     psi = 0.898*[#   1]+0.031*[#  32]+0.016*[#  31]+0.013*[#  29]+0.008*[#  13]
          +0.006*[#  30]+0.005*[#  14]+0.005*[#  33]+0.005*[#  12]+0.004*[#  27]
          +0.003*[#   3]+0.002*[#  11]+0.002*[#  15]
    |psi|^2 = 1.000
==== e(   3) =   -38.53732 eV ==== 
     psi = 0.808*[#   5]+0.176*[#   8]+0.007*[#  11]+0.003*[#  14]
    |psi|^2 = 1.000
==== e(   4) =   -38.32893 eV ==== 
     psi = 0.532*[#   6]+0.454*[#   9]+0.004*[#  28]+0.003*[#  30]+0.003*[#  33]
          +0.001*[#  34]
    |psi|^2 = 1.000
==== e(   5) =   -37.37443 eV ==== 
     psi = 0.985*[#  10]+0.011*[#  16]
    |psi|^2 = 1.000
==== e(   6) =   -34.77489 eV ==== 
     psi = 0.533*[#   9]+0.454*[#   6]+0.006*[#  12]+0.003*[#  15]
    |psi|^2 = 1.000
==== e(   7) =   -34.41269 eV ==== 
     psi = 0.810*[#   8]+0.176*[#   5]+0.004*[#  27]+0.003*[#  32]+0.003*[#  29]
          +0.001*[#  31]
    |psi|^2 = 1.000
==== e(   8) =   -33.91071 eV ==== 
     psi = 0.986*[#   7]+0.010*[#  13]
    |psi|^2 = 1.000
==== e(   9) =     8.13457 eV ==== 
     psi = 0.267*[#  28]+0.240*[#   4]+0.094*[#  15]+0.072*[#  33]+0.056*[#  34]
          +0.045*[#  12]+0.044*[#  16]+0.039*[#   2]+0.031*[#  29]+0.027*[#  11]
          +0.026*[#  30]+0.019*[#  32]+0.015*[#  14]+0.007*[#  42]+0.006*[#  37]
          +0.002*[#  24]+0.001*[#  19]
    |psi|^2 = 0.999
==== e(  10) =     8.26065 eV ==== 
     psi = 0.278*[#  27]+0.226*[#   3]+0.095*[#  14]+0.072*[#  32]+0.056*[#  31]
          +0.046*[#  11]+0.044*[#  13]+0.041*[#   1]+0.031*[#  30]+0.027*[#  12]
          +0.026*[#  29]+0.019*[#  33]+0.015*[#  15]+0.007*[#  41]+0.006*[#  36]
          +0.001*[#   8]+0.001*[#  23]+0.001*[#  38]+0.001*[#  39]
    |psi|^2 = 0.999
==== e(  11) =    10.98628 eV ==== 
     psi = 0.260*[#  37]+0.225*[#  42]+0.134*[#  24]+0.090*[#  35]+0.078*[#  19]
          +0.067*[#  44]+0.058*[#   4]+0.014*[#  26]+0.013*[#  40]+0.010*[#  33]
          +0.010*[#  17]+0.008*[#  30]+0.008*[#  28]+0.004*[#  15]+0.004*[#  16]
          +0.003*[#  22]+0.003*[#  11]+0.002*[#   2]+0.002*[#  12]+0.002*[#  14]
          +0.001*[#  36]
    |psi|^2 = 0.999
==== e(  12) =    11.18980 eV ==== 
     psi = 0.374*[#  35]+0.263*[#  44]+0.065*[#  37]+0.053*[#  26]+0.051*[#  42]
          +0.047*[#  40]+0.038*[#  24]+0.036*[#  17]+0.022*[#  19]+0.012*[#  22]
          +0.007*[#  16]+0.006*[#   4]+0.004*[#  11]+0.004*[#  34]+0.003*[#  29]
          +0.003*[#  14]+0.002*[#  28]+0.002*[#  15]+0.002*[#  32]+0.001*[#  25]
          +0.001*[#  30]
    |psi|^2 = 0.999
==== e(  13) =    11.43877 eV ==== 
     psi = 0.293*[#  38]+0.205*[#  39]+0.182*[#  36]+0.132*[#  41]+0.038*[#   3]
          +0.037*[#  23]+0.035*[#  43]+0.017*[#  21]+0.013*[#  18]+0.010*[#  20]
          +0.007*[#  32]+0.006*[#  29]+0.006*[#  25]+0.005*[#  27]+0.002*[#  14]
          +0.002*[#   1]+0.001*[#  11]+0.001*[#  40]
    |psi|^2 = 0.998
==== e(  14) =    11.61317 eV ==== 
     psi = 0.254*[#  36]+0.225*[#  38]+0.164*[#  41]+0.148*[#  39]+0.056*[#  23]
          +0.030*[#   3]+0.021*[#  43]+0.017*[#  18]+0.012*[#  21]+0.011*[#  13]
          +0.008*[#  27]+0.006*[#  20]+0.006*[#  12]+0.006*[#  14]+0.006*[#  29]
          +0.005*[#  32]+0.005*[#  25]+0.005*[#  15]+0.004*[#  31]+0.003*[#  30]
          +0.002*[#  11]+0.002*[#  33]
    |psi|^2 = 0.999
==== e(  15) =    13.51240 eV ==== 
     psi = 0.252*[#  18]+0.201*[#  41]+0.168*[#  36]+0.079*[#  23]+0.065*[#  26]
          +0.059*[#  43]+0.046*[#  25]+0.046*[#  17]+0.016*[#  20]+0.012*[#  35]
          +0.010*[#  38]+0.008*[#  22]+0.005*[#  44]+0.005*[#  11]+0.004*[#  19]
          +0.003*[#  12]+0.003*[#  24]+0.003*[#  39]+0.003*[#   3]+0.002*[#  15]
          +0.002*[#  16]
    |psi|^2 = 0.999
==== e(  16) =    13.80634 eV ==== 
     psi = 0.212*[#  25]+0.154*[#  43]+0.151*[#  17]+0.112*[#  18]+0.075*[#  20]
          +0.053*[#  41]+0.048*[#  36]+0.046*[#  35]+0.040*[#  23]+0.037*[#  38]
          +0.032*[#  26]+0.025*[#  22]+0.008*[#  39]+0.001*[#  16]
    |psi|^2 = 0.999
==== e(  17) =    14.02383 eV ==== 
     psi = 0.247*[#  17]+0.226*[#  26]+0.160*[#  25]+0.090*[#  43]+0.089*[#  35]
          +0.067*[#  20]+0.033*[#  22]+0.027*[#  38]+0.015*[#  44]+0.013*[#  19]
          +0.010*[#  24]+0.007*[#  37]+0.006*[#  39]+0.004*[#  18]+0.001*[#  23]
          +0.001*[#  42]
    |psi|^2 = 0.999
==== e(  18) =    14.17746 eV ==== 
     psi = 0.507*[#  37]+0.217*[#  19]+0.114*[#  42]+0.047*[#  40]+0.025*[#  24]
          +0.021*[#  35]+0.008*[#  14]+0.008*[#  21]+0.007*[#  18]+0.007*[#  41]
          +0.006*[#  11]+0.006*[#  20]+0.004*[#  17]+0.004*[#  12]+0.003*[#  44]
          +0.002*[#  22]+0.002*[#  29]+0.002*[#  38]+0.002*[#  43]+0.001*[#  32]
          +0.001*[#  13]
    |psi|^2 = 0.999
==== e(  19) =    14.83439 eV ==== 
     psi = 0.332*[#  26]+0.199*[#  40]+0.125*[#  44]+0.112*[#  17]+0.103*[#  35]
          +0.036*[#  19]+0.027*[#  37]+0.016*[#  24]+0.009*[#  22]+0.007*[#  20]
          +0.006*[#  18]+0.005*[#  23]+0.005*[#  36]+0.003*[#  14]+0.002*[#  38]
          +0.002*[#  42]+0.002*[#  11]
    |psi|^2 = 0.999
==== e(  20) =    14.96283 eV ==== 
     psi = 0.195*[#  26]+0.188*[#  40]+0.142*[#  22]+0.139*[#  17]+0.108*[#  24]
          +0.079*[#  42]+0.059*[#  19]+0.047*[#  25]+0.008*[#  35]+0.006*[#  37]
          +0.004*[#  11]+0.003*[#  14]+0.003*[#  21]+0.003*[#  38]+0.002*[#  18]
          +0.002*[#  12]+0.001*[#   4]+0.002*[#  29]+0.001*[#  41]
    |psi|^2 = 0.999
==== e(  21) =    15.09260 eV ==== 
     psi = 0.227*[#  24]+0.205*[#  42]+0.092*[#  40]+0.058*[#  18]+0.058*[#  22]
          +0.058*[#  23]+0.037*[#  35]+0.032*[#  36]+0.026*[#  19]+0.024*[#  26]
          +0.023*[#  41]+0.019*[#  25]+0.018*[#  37]+0.018*[#  43]+0.015*[#  17]
          +0.015*[#  15]+0.015*[#  12]+0.012*[#  30]+0.012*[#   4]+0.009*[#  20]
          +0.009*[#  33]+0.004*[#  28]+0.004*[#  44]+0.004*[#  38]+0.002*[#  21]
          
    |psi|^2 = 0.999
==== e(  22) =    15.31237 eV ==== 
     psi = 0.172*[#  42]+0.098*[#  36]+0.097*[#  23]+0.095*[#  25]+0.083*[#  18]
          +0.080*[#  24]+0.063*[#  38]+0.060*[#  41]+0.053*[#  43]+0.032*[#  15]
          +0.028*[#  39]+0.021*[#  12]+0.021*[#  40]+0.020*[#  30]+0.015*[#  26]
          +0.015*[#  33]+0.010*[#  22]+0.008*[#   4]+0.005*[#  28]+0.005*[#  20]
          +0.003*[#  19]+0.003*[#  17]+0.003*[#  35]+0.002*[#  29]+0.002*[#  11]
          +0.001*[#   3]
    |psi|^2 = 0.999
==== e(  23) =    15.89708 eV ==== 
     psi = 0.238*[#  38]+0.174*[#  25]+0.139*[#  39]+0.081*[#  40]+0.077*[#  23]
          +0.075*[#  36]+0.040*[#  21]+0.038*[#  44]+0.037*[#  41]+0.028*[#  18]
          +0.023*[#  20]+0.015*[#  22]+0.009*[#  43]+0.004*[#  19]+0.003*[#  17]
          +0.003*[#  35]+0.002*[#  29]+0.002*[#   3]+0.002*[#  11]+0.002*[#  24]
          
    |psi|^2 = 0.998
==== e(  24) =    16.11718 eV ==== 
     psi = 0.274*[#  20]+0.187*[#  44]+0.175*[#  21]+0.151*[#  43]+0.087*[#  35]
          +0.028*[#  40]+0.020*[#  17]+0.010*[#  36]+0.010*[#  25]+0.010*[#  38]
          +0.008*[#  26]+0.008*[#  15]+0.006*[#  41]+0.003*[#  18]+0.003*[#  33]
          +0.003*[#  37]+0.002*[#  29]+0.001*[#  11]+0.002*[#  13]+0.001*[#   4]
          +0.001*[#  23]
    |psi|^2 = 0.995
==== e(  25) =    16.36578 eV ==== 
     psi = 0.302*[#  39]+0.229*[#  21]+0.130*[#  44]+0.084*[#  20]+0.050*[#  35]
          +0.047*[#  38]+0.043*[#  40]+0.028*[#  17]+0.022*[#  43]+0.012*[#  25]
          +0.011*[#  26]+0.010*[#  18]+0.008*[#  42]+0.005*[#  22]+0.003*[#  37]
          +0.002*[#  41]+0.002*[#  36]+0.001*[#  13]+0.001*[#  12]
    |psi|^2 = 0.997
==== e(  26) =    16.63571 eV ==== 
     psi = 0.260*[#  43]+0.152*[#  44]+0.116*[#  39]+0.068*[#  23]+0.064*[#  40]
          +0.057*[#  36]+0.054*[#  25]+0.053*[#  35]+0.035*[#  20]+0.024*[#  17]
          +0.018*[#  26]+0.011*[#  18]+0.010*[#  21]+0.009*[#  22]+0.007*[#  15]
          +0.007*[#  14]+0.007*[#  38]+0.007*[#  42]+0.006*[#  41]+0.004*[#  11]
          +0.004*[#   3]+0.004*[#  19]+0.004*[#  29]+0.004*[#  24]+0.004*[#  32]
          +0.003*[#  33]+0.003*[#  27]+0.002*[#   4]+0.001*[#  30]+0.001*[#  12]
          
    |psi|^2 = 0.999
==== e(  27) =    16.92865 eV ==== 
     psi = 0.139*[#  22]+0.137*[#  19]+0.133*[#  41]+0.096*[#  14]+0.088*[#  24]
          +0.058*[#  29]+0.056*[#  32]+0.052*[#  18]+0.050*[#  11]+0.041*[#  17]
          +0.036*[#   3]+0.031*[#  43]+0.023*[#  27]+0.015*[#  23]+0.013*[#  25]
          +0.005*[#  36]+0.005*[#  37]+0.003*[#  21]+0.002*[#  40]+0.002*[#  15]
          +0.002*[#  35]+0.002*[#  30]+0.001*[#  13]+0.001*[#  42]
    |psi|^2 = 0.996
==== e(  28) =    17.54121 eV ==== 
     psi = 0.400*[#  23]+0.288*[#  18]+0.096*[#  41]+0.055*[#  22]+0.049*[#  19]
          +0.034*[#  24]+0.017*[#  36]+0.010*[#  17]+0.008*[#  14]+0.007*[#  29]
[...]
          +0.001*[#  18]
    |psi|^2 = 0.917
==== e(  44) =    30.36904 eV ==== 
     psi = 0.336*[#  14]+0.196*[#  11]+0.158*[#  31]+0.042*[#  33]+0.027*[#  30]
          +0.025*[#  32]+0.022*[#  39]+0.020*[#  12]+0.015*[#  13]+0.012*[#   3]
          +0.010*[#  38]+0.010*[#  27]+0.007*[#  15]+0.006*[#  29]+0.004*[#  43]
          +0.003*[#   8]+0.002*[#  19]+0.002*[#   5]+0.002*[#  40]+0.002*[#   1]
          +0.001*[#  24]+0.001*[#  22]
    |psi|^2 = 0.907
==== e(  45) =    39.03389 eV ==== 
     psi = 0.004*[#   4]+0.003*[#  15]+0.002*[#  16]+0.002*[#  11]+0.001*[#  12]
          
    |psi|^2 = 0.015
==== e(  46) =    39.34795 eV ==== 
     psi = 0.005*[#   3]+0.004*[#  14]+0.002*[#  11]+0.002*[#  13]+0.001*[#  12]
          +0.001*[#  22]
    |psi|^2 = 0.019
==== e(  47) =    40.19955 eV ==== 
 
    |psi|^2 = 0.003
==== e(  48) =    40.46235 eV ==== 
 
    |psi|^2 = 0.006
==== e(  49) =    42.17386 eV ==== 
     psi = 0.015*[#   4]+0.002*[#  15]+0.001*[#  12]
    |psi|^2 = 0.023
==== e(  50) =    42.66791 eV ==== 
     psi = 0.019*[#   3]+0.005*[#  14]+0.003*[#  11]+0.001*[#  13]+0.001*[#  27]
          
    |psi|^2 = 0.032
==== e(  51) =    44.19011 eV ==== 
     psi = 0.005*[#  28]+0.002*[#   4]
    |psi|^2 = 0.008
==== e(  52) =    44.28680 eV ==== 
     psi = 0.004*[#  27]+0.004*[#   3]
    |psi|^2 = 0.011
==== e(  53) =    47.84973 eV ==== 
     psi = 0.002*[#  15]+0.001*[#  32]
    |psi|^2 = 0.006
==== e(  54) =    47.95044 eV ==== 
     psi = 0.002*[#  34]
    |psi|^2 = 0.006
==== e(  55) =    47.98449 eV ==== 
     psi = 0.002*[#  34]+0.001*[#  33]
    |psi|^2 = 0.007
==== e(  56) =    48.08617 eV ==== 
     psi = 0.004*[#  31]+0.001*[#  14]
    |psi|^2 = 0.008
==== e(  57) =    51.63330 eV ==== 
     psi = 0.017*[#  15]+0.008*[#   4]+0.008*[#  12]
    |psi|^2 = 0.038
==== e(  58) =    52.46590 eV ==== 
     psi = 0.020*[#  14]+0.011*[#   3]+0.010*[#  11]+0.001*[#  13]
    |psi|^2 = 0.046
==== e(  59) =    52.75162 eV ==== 
 
    |psi|^2 = 0.002
==== e(  60) =    52.79176 eV ==== 
 
    |psi|^2 = 0.002
==== e(  61) =    55.20929 eV ==== 
     psi = 0.002*[#  33]
    |psi|^2 = 0.004
==== e(  62) =    55.29683 eV ==== 
     psi = 0.003*[#  32]
    |psi|^2 = 0.006
==== e(  63) =    55.31604 eV ==== 
 
    |psi|^2 = 0.000
==== e(  64) =    55.37177 eV ==== 
 
    |psi|^2 = 0.000
==== e(  65) =    56.42281 eV ==== 
     psi = 0.007*[#  33]+0.002*[#  32]+0.002*[#  28]+0.001*[#  30]
    |psi|^2 = 0.013
==== e(  66) =    56.43752 eV ==== 
     psi = 0.008*[#  32]+0.002*[#  33]+0.002*[#  27]+0.001*[#  29]
    |psi|^2 = 0.014
==== e(  67) =    58.60718 eV ==== 
     psi = 0.003*[#  33]
    |psi|^2 = 0.006
==== e(  68) =    58.86436 eV ==== 
     psi = 0.002*[#  32]
    |psi|^2 = 0.005
==== e(  69) =    59.97279 eV ==== 
 
    |psi|^2 = 0.000
==== e(  70) =    59.99184 eV ==== 
 
    |psi|^2 = 0.000
==== e(  71) =    60.36109 eV ==== 
 
    |psi|^2 = 0.001
==== e(  72) =    60.68897 eV ==== 
 
    |psi|^2 = 0.001
==== e(  73) =    61.54863 eV ==== 
     psi = 0.002*[#  33]
    |psi|^2 = 0.006
==== e(  74) =    61.98025 eV ==== 
     psi = 0.001*[#  32]
    |psi|^2 = 0.005
==== e(  75) =    62.29427 eV ==== 
 
    |psi|^2 = 0.002
==== e(  76) =    62.47546 eV ==== 
 
    |psi|^2 = 0.002
==== e(  77) =    63.63346 eV ==== 
 
    |psi|^2 = 0.001
==== e(  78) =    64.06048 eV ==== 
 
    |psi|^2 = 0.002
==== e(  79) =    65.19243 eV ==== 
 
    |psi|^2 = 0.003
==== e(  80) =    65.35259 eV ==== 
 
    |psi|^2 = 0.001
==== e(  81) =    65.60599 eV ==== 
 
    |psi|^2 = 0.001
==== e(  82) =    65.90132 eV ==== 
     psi = 0.002*[#  14]
    |psi|^2 = 0.004
==== e(  83) =    68.03965 eV ==== 
 
    |psi|^2 = 0.001
==== e(  84) =    68.16085 eV ==== 
 
    |psi|^2 = 0.001
==== e(  85) =    68.33340 eV ==== 
 
    |psi|^2 = 0.001
==== e(  86) =    68.65828 eV ==== 
     psi = 0.001*[#  14]
    |psi|^2 = 0.003
==== e(  87) =    69.28524 eV ==== 
 
    |psi|^2 = 0.002
==== e(  88) =    69.87672 eV ==== 
     psi = 0.001*[#   3]
    |psi|^2 = 0.002
==== e(  89) =    69.98171 eV ==== 
     psi = 0.003*[#  32]+0.002*[#  34]
    |psi|^2 = 0.006
==== e(  90) =    70.41448 eV ==== 
     psi = 0.003*[#  33]+0.002*[#  31]
    |psi|^2 = 0.006
==== e(  91) =    70.88051 eV ==== 
     psi = 0.002*[#  34]
    |psi|^2 = 0.003
==== e(  92) =    71.27784 eV ==== 
     psi = 0.002*[#  31]
    |psi|^2 = 0.003
==== e(  93) =    71.62525 eV ==== 
 
    |psi|^2 = 0.000
==== e(  94) =    71.88146 eV ==== 
 
    |psi|^2 = 0.000
==== e(  95) =    72.04343 eV ==== 
 
    |psi|^2 = 0.001
==== e(  96) =    72.40087 eV ==== 
 
    |psi|^2 = 0.001
==== e(  97) =    72.82186 eV ==== 
     psi = 0.003*[#  34]+0.001*[#  32]
    |psi|^2 = 0.006
==== e(  98) =    72.98476 eV ==== 
     psi = 0.004*[#  31]+0.001*[#  33]
    |psi|^2 = 0.006

 k =   0.4444444444  0.4444444444 -0.3609624968
==== e(   1) =   -71.94905 eV ==== 
     psi = 0.980*[#   2]+0.019*[#   4]
    |psi|^2 = 1.000
==== e(   2) =   -68.36221 eV ==== 
     psi = 0.981*[#   1]+0.018*[#   3]
    |psi|^2 = 1.000
==== e(   3) =   -38.60661 eV ==== 
     psi = 0.813*[#   5]+0.181*[#   8]+0.005*[#  43]
    |psi|^2 = 1.000
==== e(   4) =   -38.31920 eV ==== 
     psi = 0.540*[#   6]+0.450*[#   9]+0.003*[#  44]+0.002*[#  15]+0.001*[#  40]
          +0.001*[#  35]+0.001*[#  12]
    |psi|^2 = 1.000
==== e(   5) =   -37.45261 eV ==== 
     psi = 0.995*[#  10]+0.003*[#  36]+0.002*[#  41]
    |psi|^2 = 1.000
==== e(   6) =   -34.85684 eV ==== 
     psi = 0.541*[#   9]+0.452*[#   6]+0.004*[#  40]+0.001*[#  35]
    |psi|^2 = 1.000
==== e(   7) =   -34.39955 eV ==== 
     psi = 0.811*[#   8]+0.180*[#   5]+0.003*[#  39]+0.002*[#  38]+0.002*[#  14]
          
    |psi|^2 = 1.000
==== e(   8) =   -34.00294 eV ==== 
     psi = 0.994*[#   7]+0.003*[#  37]+0.002*[#  42]
    |psi|^2 = 1.000
==== e(   9) =    11.05419 eV ==== 
     psi = 0.513*[#  35]+0.370*[#  44]+0.068*[#  15]+0.029*[#  40]+0.014*[#  12]
          +0.002*[#   9]
    |psi|^2 = 1.000
==== e(  10) =    11.21058 eV ==== 
     psi = 0.532*[#  38]+0.364*[#  39]+0.072*[#  14]+0.016*[#  43]+0.011*[#  11]
          +0.003*[#   8]+0.001*[#  30]
    |psi|^2 = 1.000
==== e(  11) =    11.96141 eV ==== 
     psi = 0.654*[#  36]+0.213*[#  41]+0.101*[#  16]+0.008*[#   4]+0.007*[#  26]
          +0.006*[#  43]+0.004*[#  10]+0.002*[#  24]
    |psi|^2 = 0.999
==== e(  12) =    12.15460 eV ==== 
     psi = 0.678*[#  37]+0.194*[#  42]+0.103*[#  13]+0.007*[#   3]+0.006*[#  40]
          +0.005*[#   7]+0.002*[#  21]+0.001*[#  25]
    |psi|^2 = 0.999
==== e(  13) =    12.48581 eV ==== 
     psi = 0.727*[#  43]+0.095*[#  11]+0.085*[#  38]+0.034*[#  39]+0.017*[#  14]
          +0.015*[#  17]+0.006*[#  36]+0.006*[#   4]+0.004*[#  22]+0.004*[#   5]
          +0.002*[#  41]+0.002*[#  24]+0.001*[#  16]
    |psi|^2 = 0.999
==== e(  14) =    12.67778 eV ==== 
     psi = 0.720*[#  40]+0.112*[#  35]+0.096*[#  12]+0.026*[#  44]+0.022*[#  15]
          +0.006*[#  37]+0.005*[#   3]+0.004*[#   6]+0.002*[#  20]+0.002*[#  42]
          +0.001*[#  21]+0.001*[#   9]
    |psi|^2 = 0.999
==== e(  15) =    12.89973 eV ==== 
     psi = 0.449*[#  26]+0.361*[#  17]+0.111*[#  22]+0.033*[#  30]+0.027*[#  33]
          +0.007*[#  43]+0.005*[#  11]+0.003*[#  16]+0.002*[#  14]
    |psi|^2 = 0.999
==== e(  16) =    13.33798 eV ==== 
     psi = 0.684*[#  25]+0.148*[#  20]+0.070*[#  29]+0.032*[#  18]+0.019*[#  23]
          +0.013*[#  28]+0.012*[#  32]+0.008*[#  42]+0.004*[#  44]+0.002*[#  34]
          +0.002*[#  15]+0.002*[#  21]+0.001*[#  35]
    |psi|^2 = 0.999
==== e(  17) =    13.49896 eV ==== 
     psi = 0.539*[#  18]+0.336*[#  23]+0.043*[#  25]+0.043*[#  34]+0.009*[#  20]
          +0.006*[#  44]+0.005*[#  28]+0.004*[#  29]+0.004*[#  42]+0.004*[#  35]
          +0.003*[#  40]
    |psi|^2 = 0.999
==== e(  18) =    14.62702 eV ==== 
     psi = 0.526*[#  24]+0.453*[#  19]+0.011*[#   4]+0.003*[#  36]+0.002*[#  43]
          
    |psi|^2 = 1.000
==== e(  19) =    15.12888 eV ==== 
     psi = 0.386*[#  21]+0.371*[#  20]+0.078*[#  32]+0.062*[#  29]+0.051*[#  25]
          +0.022*[#  42]+0.011*[#  37]+0.007*[#  13]+0.003*[#  12]+0.001*[#  15]
          +0.001*[#  28]
    |psi|^2 = 0.997
==== e(  20) =    15.22672 eV ==== 
     psi = 0.300*[#  22]+0.212*[#  41]+0.155*[#  17]+0.078*[#  30]+0.071*[#  36]
          +0.060*[#  27]+0.042*[#  24]+0.029*[#  19]+0.023*[#  33]+0.007*[#  31]
          +0.006*[#  38]+0.006*[#  39]+0.003*[#  16]+0.002*[#  14]+0.002*[#  26]
          +0.001*[#  43]
    |psi|^2 = 0.997
==== e(  21) =    15.37764 eV ==== 
     psi = 0.684*[#  42]+0.226*[#  37]+0.028*[#  28]+0.020*[#  21]+0.020*[#  20]
          +0.005*[#  13]+0.005*[#  18]+0.005*[#  23]+0.005*[#  32]
    |psi|^2 = 0.999
==== e(  22) =    15.53882 eV ==== 
     psi = 0.190*[#  22]+0.181*[#  41]+0.149*[#  19]+0.149*[#  24]+0.069*[#  36]
          +0.065*[#  17]+0.058*[#  30]+0.038*[#  31]+0.037*[#  39]+0.024*[#  38]
          +0.015*[#  33]+0.011*[#  27]+0.009*[#  43]+0.002*[#  16]+0.001*[#  26]
          
    |psi|^2 = 0.997
==== e(  23) =    15.85185 eV ==== 
     psi = 0.328*[#  26]+0.161*[#  17]+0.151*[#  22]+0.105*[#  19]+0.082*[#  24]
          +0.068*[#  41]+0.057*[#  36]+0.027*[#  31]+0.007*[#  30]+0.004*[#  39]
          +0.003*[#  38]+0.002*[#  33]+0.002*[#  43]
    |psi|^2 = 0.999
==== e(  24) =    15.92458 eV ==== 
     psi = 0.237*[#  41]+0.182*[#  17]+0.180*[#  26]+0.151*[#  19]+0.117*[#  24]
          +0.062*[#  36]+0.039*[#  31]+0.010*[#  22]+0.006*[#  43]+0.005*[#  39]
          +0.004*[#  30]+0.002*[#  16]
    |psi|^2 = 0.998
==== e(  25) =    17.34237 eV ==== 
     psi = 0.523*[#  44]+0.316*[#  35]+0.113*[#  40]+0.021*[#  25]+0.007*[#  29]
          +0.005*[#  18]+0.005*[#  23]+0.004*[#  15]+0.002*[#  34]+0.002*[#  32]
          
    |psi|^2 = 0.999
==== e(  26) =    17.81370 eV ==== 
     psi = 0.589*[#  23]+0.373*[#  18]+0.030*[#   3]+0.001*[#  13]+0.001*[#  12]
          
    |psi|^2 = 0.997
==== e(  27) =    17.90209 eV ==== 
     psi = 0.484*[#  39]+0.297*[#  38]+0.101*[#  43]+0.052*[#  22]+0.027*[#  19]
          +0.019*[#  24]+0.013*[#  17]+0.004*[#  14]
    |psi|^2 = 0.998
==== e(  28) =    18.63596 eV ==== 
     psi = 0.505*[#  21]+0.384*[#  20]+0.098*[#  25]+0.005*[#  40]+0.003*[#  42]
          +0.002*[#  37]
    |psi|^2 = 1.000
==== e(  29) =    22.05513 eV ==== 
     psi = 0.388*[#  29]+0.281*[#  28]+0.084*[#  34]+0.071*[#  32]+0.069*[#  25]
          +0.035*[#  15]+0.019*[#  44]+0.009*[#  12]+0.009*[#  18]+0.007*[#  23]
          +0.005*[#  21]+0.005*[#  37]+0.003*[#  42]+0.002*[#  13]+0.002*[#  20]
          
    |psi|^2 = 0.992
==== e(  30) =    22.72693 eV ==== 
     psi = 0.398*[#  30]+0.222*[#  27]+0.132*[#  22]+0.054*[#  14]+0.047*[#  31]
          +0.037*[#  16]+0.023*[#   4]+0.016*[#  19]+0.015*[#  39]+0.014*[#  24]
          +0.012*[#  36]+0.007*[#  26]+0.006*[#  17]+0.005*[#  43]+0.002*[#  38]
          +0.001*[#  11]+0.001*[#  33]
    |psi|^2 = 0.993
==== e(  31) =    23.47243 eV ==== 
     psi = 0.212*[#   4]+0.201*[#  33]+0.158*[#  16]+0.134*[#  11]+0.094*[#  27]
          +0.035*[#  31]+0.034*[#  43]+0.032*[#  41]+0.020*[#  17]+0.016*[#  14]
          +0.013*[#  19]+0.009*[#  26]+0.009*[#  36]+0.005*[#  22]+0.003*[#   2]
          +0.003*[#  30]+0.002*[#  24]+0.002*[#  38]
    |psi|^2 = 0.983
==== e(  32) =    24.06600 eV ==== 
     psi = 0.284*[#  34]+0.224*[#  29]+0.096*[#  13]+0.085*[#  28]+0.077*[#  12]
          +0.073*[#   3]+0.027*[#  40]+0.024*[#  21]+0.022*[#  42]+0.020*[#  25]
          +0.015*[#  18]+0.011*[#  20]+0.007*[#  32]+0.005*[#  15]+0.004*[#  23]
          +0.004*[#  37]+0.003*[#  44]
    |psi|^2 = 0.984
==== e(  33) =    24.31208 eV ==== 
     psi = 0.193*[#  34]+0.188*[#  32]+0.146*[#  13]+0.145*[#   3]+0.067*[#  12]
          +0.057*[#  15]+0.055*[#  29]+0.024*[#  28]+0.019*[#  37]+0.017*[#  20]
          +0.014*[#  40]+0.013*[#  35]+0.011*[#  23]+0.010*[#  21]+0.008*[#  42]
          +0.003*[#  18]+0.002*[#   1]+0.002*[#  25]+0.002*[#  44]
    |psi|^2 = 0.979
==== e(  34) =    24.70906 eV ==== 
     psi = 0.282*[#  30]+0.276*[#  31]+0.186*[#   4]+0.113*[#  27]+0.035*[#  24]
          +0.033*[#  22]+0.021*[#  19]+0.006*[#  38]+0.005*[#  14]+0.005*[#  36]
          +0.004*[#   2]+0.003*[#  26]+0.003*[#  39]+0.002*[#  33]+0.002*[#  16]
          +0.001*[#  11]
    |psi|^2 = 0.981
==== e(  35) =    25.21868 eV ==== 
     psi = 0.446*[#   4]+0.262*[#  33]+0.107*[#  31]+0.039*[#  11]+0.026*[#  14]
          +0.022*[#  19]+0.019*[#  16]+0.012*[#  17]+0.010*[#   2]+0.006*[#  22]
          +0.005*[#  26]+0.003*[#  30]+0.003*[#  27]+0.002*[#  38]+0.001*[#  39]
          
    |psi|^2 = 0.964
==== e(  36) =    25.45843 eV ==== 
     psi = 0.457*[#  16]+0.235*[#  11]+0.164*[#  14]+0.046*[#  43]+0.031*[#  36]
          +0.021*[#  41]+0.010*[#  38]+0.009*[#   4]+0.007*[#  27]+0.003*[#  31]
          +0.002*[#  33]+0.001*[#  30]+0.001*[#  17]
    |psi|^2 = 0.989
==== e(  37) =    25.89463 eV ==== 
     psi = 0.382*[#  13]+0.229*[#  12]+0.199*[#  15]+0.042*[#  40]+0.037*[#  28]
          +0.033*[#  37]+0.016*[#  34]+0.014*[#  42]+0.012*[#  35]+0.008*[#  29]
          +0.006*[#  21]+0.004*[#   3]+0.001*[#  32]
    |psi|^2 = 0.987
==== e(  38) =    26.23932 eV ==== 
     psi = 0.563*[#   3]+0.154*[#  32]+0.058*[#  13]+0.046*[#  29]+0.033*[#  28]
          +0.028*[#  34]+0.017*[#  20]+0.017*[#  21]+0.013*[#  18]+0.012*[#   1]
          +0.011*[#  23]+0.003*[#  25]+0.003*[#  42]+0.002*[#  40]+0.002*[#  15]
          
    |psi|^2 = 0.961
==== e(  39) =    26.61681 eV ==== 
     psi = 0.470*[#  28]+0.195*[#  34]+0.135*[#  12]+0.049*[#   3]+0.037*[#  32]
          +0.029*[#  29]+0.020*[#  42]+0.011*[#  15]+0.009*[#  40]+0.005*[#  23]
          +0.005*[#  44]+0.003*[#  37]+0.003*[#  13]+0.001*[#   1]+0.001*[#  35]
          
    |psi|^2 = 0.976
==== e(  40) =    26.74308 eV ==== 
     psi = 0.447*[#  27]+0.275*[#  31]+0.118*[#  11]+0.058*[#  30]+0.014*[#  41]
          +0.011*[#  14]+0.010*[#  43]+0.009*[#  36]+0.009*[#   4]+0.007*[#  24]
          +0.007*[#  19]+0.004*[#  39]+0.003*[#  16]+0.001*[#  22]+0.001*[#  38]
          
    |psi|^2 = 0.975
==== e(  41) =    27.41502 eV ==== 
     psi = 0.377*[#  33]+0.198*[#  16]+0.136*[#  14]+0.075*[#  11]+0.040*[#   4]
          +0.039*[#  30]+0.027*[#  27]+0.015*[#  41]+0.013*[#  43]+0.006*[#  17]
          +0.006*[#  26]+0.006*[#  36]+0.006*[#  38]+0.002*[#  31]+0.002*[#  39]
          +0.001*[#   2]
    |psi|^2 = 0.953
==== e(  42) =    28.11947 eV ==== 
     psi = 0.347*[#  32]+0.179*[#  13]+0.126*[#  15]+0.074*[#  12]+0.073*[#  29]
          +0.066*[#   3]+0.021*[#  21]+0.017*[#  20]+0.012*[#  40]+0.008*[#  42]
          +0.007*[#  37]+0.005*[#  35]+0.004*[#  23]+0.003*[#  25]+0.003*[#  28]
          +0.002*[#   1]+0.002*[#  18]+0.001*[#  44]
    |psi|^2 = 0.951
==== e(  43) =    29.77673 eV ==== 
     psi = 0.421*[#  15]+0.262*[#  12]+0.113*[#  34]+0.042*[#  32]+0.033*[#  44]
          +0.019*[#  29]+0.015*[#  35]+0.009*[#  28]+0.007*[#  40]+0.004*[#   9]
          +0.002*[#   6]+0.001*[#  18]
    |psi|^2 = 0.932
==== e(  44) =    30.23319 eV ==== 
     psi = 0.435*[#  14]+0.250*[#  11]+0.108*[#  31]+0.033*[#  39]+0.031*[#  33]
          +0.021*[#  30]+0.016*[#  38]+0.007*[#  43]+0.006*[#  27]+0.003*[#   8]
          +0.002*[#  19]+0.002*[#   5]+0.002*[#  22]+0.001*[#  24]
    |psi|^2 = 0.919
==== e(  45) =    40.70445 eV ==== 
     psi = 0.003*[#  15]+0.001*[#  12]+0.001*[#  29]+0.001*[#  34]
    |psi|^2 = 0.008
==== e(  46) =    40.97446 eV ==== 
     psi = 0.005*[#  14]+0.002*[#  11]
    |psi|^2 = 0.011
==== e(  47) =    41.62182 eV ==== 
     psi = 0.002*[#  34]
    |psi|^2 = 0.003
==== e(  48) =    41.84643 eV ==== 
     psi = 0.001*[#  31]
    |psi|^2 = 0.004
==== e(  49) =    43.93240 eV ==== 
 
    |psi|^2 = 0.001
==== e(  50) =    43.97360 eV ==== 
 
    |psi|^2 = 0.001
==== e(  51) =    45.30568 eV ==== 
     psi = 0.014*[#  15]+0.006*[#  12]+0.001*[#  44]
    |psi|^2 = 0.023
==== e(  52) =    45.80112 eV ==== 
     psi = 0.002*[#  14]
    |psi|^2 = 0.003
==== e(  53) =    45.82240 eV ==== 
     psi = 0.017*[#  14]+0.009*[#  11]+0.001*[#  39]
    |psi|^2 = 0.029
==== e(  54) =    45.87428 eV ==== 
 
    |psi|^2 = 0.002
==== e(  55) =    47.71338 eV ==== 
     psi = 0.022*[#   4]+0.001*[#  16]
    |psi|^2 = 0.025
==== e(  56) =    48.45184 eV ==== 
     psi = 0.016*[#   3]
    |psi|^2 = 0.019
==== e(  57) =    49.16306 eV ==== 
     psi = 0.004*[#   4]+0.001*[#  16]
    |psi|^2 = 0.007
==== e(  58) =    49.42316 eV ==== 
     psi = 0.016*[#   3]+0.002*[#  13]+0.001*[#  12]
    |psi|^2 = 0.021
==== e(  59) =    53.22567 eV ==== 
 
    |psi|^2 = 0.001
==== e(  60) =    53.23285 eV ==== 
 
    |psi|^2 = 0.001
==== e(  61) =    53.61812 eV ==== 
     psi = 0.006*[#  28]
    |psi|^2 = 0.007
==== e(  62) =    53.66627 eV ==== 
     psi = 0.006*[#  27]
    |psi|^2 = 0.008
==== e(  63) =    54.65152 eV ==== 
 
    |psi|^2 = 0.000
==== e(  64) =    54.77848 eV ==== 
 
    |psi|^2 = 0.000
==== e(  65) =    56.25420 eV ==== 
 
    |psi|^2 = 0.001
==== e(  66) =    56.26666 eV ==== 
 
    |psi|^2 = 0.001
==== e(  67) =    57.49289 eV ==== 
 
    |psi|^2 = 0.000
==== e(  68) =    57.84900 eV ==== 
 
    |psi|^2 = 0.000
==== e(  69) =    59.90101 eV ==== 
 
    |psi|^2 = 0.001
==== e(  70) =    60.03289 eV ==== 
 
    |psi|^2 = 0.000
==== e(  71) =    60.05512 eV ==== 
 
    |psi|^2 = 0.000
==== e(  72) =    60.14662 eV ==== 
 
    |psi|^2 = 0.001
==== e(  73) =    61.06450 eV ==== 
 
    |psi|^2 = 0.001
==== e(  74) =    61.71689 eV ==== 
 
    |psi|^2 = 0.002
==== e(  75) =    63.32319 eV ==== 
 
    |psi|^2 = 0.000
==== e(  76) =    63.73829 eV ==== 
 
    |psi|^2 = 0.001
==== e(  77) =    63.95868 eV ==== 
     psi = 0.001*[#  32]
    |psi|^2 = 0.003
==== e(  78) =    64.30114 eV ==== 
     psi = 0.001*[#  14]+0.001*[#  33]
    |psi|^2 = 0.003
==== e(  79) =    65.18695 eV ==== 
     psi = 0.002*[#  33]+0.001*[#   4]
    |psi|^2 = 0.004
==== e(  80) =    65.43061 eV ==== 
 
    |psi|^2 = 0.002
==== e(  81) =    65.62413 eV ==== 
     psi = 0.001*[#  31]+0.001*[#  33]
    |psi|^2 = 0.003
==== e(  82) =    65.81500 eV ==== 
     psi = 0.004*[#  32]+0.002*[#   3]
    |psi|^2 = 0.007
==== e(  83) =    67.27945 eV ==== 
 
    |psi|^2 = 0.000
==== e(  84) =    67.91982 eV ==== 
 
    |psi|^2 = 0.000
==== e(  85) =    68.19046 eV ==== 
 
    |psi|^2 = 0.003
==== e(  86) =    68.81345 eV ==== 
     psi = 0.002*[#  14]
    |psi|^2 = 0.004
==== e(  87) =    68.98889 eV ==== 
     psi = 0.002*[#  33]
    |psi|^2 = 0.003
==== e(  88) =    69.67308 eV ==== 
     psi = 0.001*[#  32]+0.001*[#   3]
    |psi|^2 = 0.003
==== e(  89) =    71.20077 eV ==== 
     psi = 0.003*[#  32]+0.001*[#  34]
    |psi|^2 = 0.005
==== e(  90) =    71.23742 eV ==== 
     psi = 0.003*[#  33]+0.002*[#  31]
    |psi|^2 = 0.006
==== e(  91) =    71.95116 eV ==== 
     psi = 0.004*[#  34]
    |psi|^2 = 0.005
==== e(  92) =    72.26163 eV ==== 
     psi = 0.004*[#  31]+0.001*[#  33]
    |psi|^2 = 0.006
==== e(  93) =    73.81553 eV ==== 
 
    |psi|^2 = 0.000
==== e(  94) =    74.21763 eV ==== 
 
    |psi|^2 = 0.000
==== e(  95) =    74.32326 eV ==== 
 
    |psi|^2 = 0.000
==== e(  96) =    74.39820 eV ==== 
 
    |psi|^2 = 0.001
==== e(  97) =    76.43635 eV ==== 
 
    |psi|^2 = 0.001
==== e(  98) =    76.53473 eV ==== 
 
    |psi|^2 = 0.000

Lowdin Charges: 

     Atom #   1: total charge =  15.9740, s =  2.2945, 
     Atom #   1: total charge =  15.9740, p =  7.1078, 
     Atom #   1: total charge =  15.9740, d =  6.5718, 
     Atom #   2: total charge =   9.9981, s =  0.4115, 
     Atom #   2: total charge =   9.9981, p =  0.9744, 
     Atom #   2: total charge =   9.9981, d =  8.6122, 
     Spilling Parameter:   0.0011
 
     PROJWFC      :      2.44s CPU      3.00s WALL

 
   This run was terminated on:  15: 7:52   2Aug2023            

=------------------------------------------------------------------------------=
   JOB DONE.
=------------------------------------------------------------------------------=
