
     Program PW2WANNIER v.7.0 starts on 13May2024 at 13:33:33 

     This program is part of the open-source Quantum ESPRESSO suite
     for quantum simulation of materials; please cite
         "P. Giannozzi et al., J. Phys.:Condens. Matter 21 395502 (2009);
         "P. Giannozzi et al., J. Phys.:Condens. Matter 29 465901 (2017);
         "P. Giannozzi et al., J. Chem. Phys. 152 154105 (2020);
          URL http://www.quantum-espresso.org", 
     in publications or presentations arising from this work. More details at
     http://www.quantum-espresso.org/quote

     Parallel version (MPI), running on    22 processors

     MPI processes distributed on     2 nodes
     R & G space division:  proc/nbgrp/npool/nimage =      22
     186155 MiB available memory on the printing compute node when the environment starts
 
 
  Reading nscf_save data

     Reading xml data from directory:

     ./work/pwscf.save/
     file Pt.rel-pbe-n-rrkjus_psl.0.1.UPF: wavefunction(s)  5D renormalized

     IMPORTANT: XC functional enforced from input :
     Exchange-correlation= PBE
                           (   1   4   3   4   0   0   0)
     Any further DFT definition will be discarded
     Please, verify this is what you really want

 
     Parallelization info
     --------------------
     sticks:   dense  smooth     PW     G-vecs:    dense   smooth      PW
     Min          74      24      8                 3184      596     102
     Max          75      25      9                 3189      601     104
     Sum        1649     545    177                70151    13173    2261
 
     Using Slab Decomposition
 

     Check: negative core charge=   -0.000005
     Reading collected, re-writing distributed wavefunctions
 
  Spin CASE ( non-collinear )
 
  Wannier mode is: standalone     
 
  -----------------
  *** Reading nnkp 
  -----------------
 
  Checking info from wannier.nnkp file
 
  - Real lattice is ok
  - Reciprocal lattice is ok
  - K-points are ok
  - Number of wannier functions is ok ( 36)
  - All guiding functions are given 
 
 Projections:
    0.000000    0.000000    0.000000  0  1  1    1.000000
    0.000000    0.000000    0.000000  0  1  1    1.000000
    0.000000    0.000000    0.000000  1  1  1    1.000000
    0.000000    0.000000    0.000000  1  1  1    1.000000
    0.000000    0.000000    0.000000  1  2  1    1.000000
    0.000000    0.000000    0.000000  1  2  1    1.000000
    0.000000    0.000000    0.000000  1  3  1    1.000000
    0.000000    0.000000    0.000000  1  3  1    1.000000
    0.000000    0.000000    0.000000  2  1  1    1.000000
    0.000000    0.000000    0.000000  2  1  1    1.000000
    0.000000    0.000000    0.000000  2  2  1    1.000000
    0.000000    0.000000    0.000000  2  2  1    1.000000
    0.000000    0.000000    0.000000  2  3  1    1.000000
    0.000000    0.000000    0.000000  2  3  1    1.000000
    0.000000    0.000000    0.000000  2  4  1    1.000000
    0.000000    0.000000    0.000000  2  4  1    1.000000
    0.000000    0.000000    0.000000  2  5  1    1.000000
    0.000000    0.000000    0.000000  2  5  1    1.000000
    0.500000    0.500000    0.692593  0  1  1    1.000000
    0.500000    0.500000    0.692593  0  1  1    1.000000
    0.500000    0.500000    0.692593  1  1  1    1.000000
    0.500000    0.500000    0.692593  1  1  1    1.000000
    0.500000    0.500000    0.692593  1  2  1    1.000000
    0.500000    0.500000    0.692593  1  2  1    1.000000
    0.500000    0.500000    0.692593  1  3  1    1.000000
    0.500000    0.500000    0.692593  1  3  1    1.000000
    0.500000    0.500000    0.692593  2  1  1    1.000000
    0.500000    0.500000    0.692593  2  1  1    1.000000
    0.500000    0.500000    0.692593  2  2  1    1.000000
    0.500000    0.500000    0.692593  2  2  1    1.000000
    0.500000    0.500000    0.692593  2  3  1    1.000000
    0.500000    0.500000    0.692593  2  3  1    1.000000
    0.500000    0.500000    0.692593  2  4  1    1.000000
    0.500000    0.500000    0.692593  2  4  1    1.000000
    0.500000    0.500000    0.692593  2  5  1    1.000000
    0.500000    0.500000    0.692593  2  5  1    1.000000
 
  Reading data about k-point neighbours 
 
  All neighbours are found 
 
  Opening pp-files 
 
 
  --------------------------
  *** Compute  A projections
  --------------------------
 
  AMN: iknum =      486
       1           1           0
           1           1   1.52840971349426     
           1           0
           1           2   1.52840971349426     
           2           1
           1           3   1.02901839108919     
           2           1
           1           4   1.02901839108919     
           3           1
           1           5  0.770952467928981     
           3           1
           1           6  0.770952467928981     
           4           1
           1           7  0.770952467928983     
           4           1
           1           8  0.770952467928983     
           5           2
           1           9   1.16888247711573     
           5           2
           1          10   1.16888247711573     
           6           2
           1          11  0.840809330708405     
           6           2
           1          12  0.840809330708405     
           7           2
           1          13  0.840809330708405     
           7           2
           1          14  0.840809330708405     
           8           2
           1          15   1.15236766844100     
           8           2
           1          16   1.15236766844100     
           9           2
           1          17  0.779190403260571     
           9           2
           1          18  0.779190403260571     
           1           0
           1          19   1.52840971349426     
           1           0
           1          20   1.52840971349426     
           2           1
           1          21   1.02901839108919     
           2           1
           1          22   1.02901839108919     
           3           1
           1          23  0.770952467928981     
           3           1
           1          24  0.770952467928981     
           4           1
           1          25  0.770952467928983     
           4           1
           1          26  0.770952467928983     
           5           2
           1          27   1.16888247711573     
           5           2
           1          28   1.16888247711573     
           6           2
           1          29  0.840809330708405     
           6           2
           1          30  0.840809330708405     
           7           2
           1          31  0.840809330708405     
           7           2
           1          32  0.840809330708405     
           8           2
           1          33   1.15236766844100     
           8           2
           1          34   1.15236766844100     
           9           2
           1          35  0.779190403260571     
           9           2
           1          36  0.779190403260571     
       2           1           0
           2           1   1.47792456642427     
           1           0
           2           2   1.47792456642427     
           2           1
           2           3   1.09583255000357     
           2           1
           2           4   1.09583255000357     
           3           1
           2           5  0.770028113110838     
           3           1
           2           6  0.770028113110838     
           4           1
           2           7  0.770028113110840     
           4           1
           2           8  0.770028113110840     
           5           2
           2           9   1.14855023448172     
           5           2
           2          10   1.14855023448172     
           6           2
           2          11  0.845083817003245     
           6           2
           2          12  0.845083817003245     
           7           2
           2          13  0.845083817003245     
           7           2
           2          14  0.845083817003245     
           8           2
           2          15   1.15034798663465     
           8           2
           2          16   1.15034798663465     
           9           2
           2          17  0.778862818596728     
           9           2
           2          18  0.778862818596728     
           1           0
           2          19   1.47792456642427     
           1           0
           2          20   1.47792456642427     
           2           1
           2          21   1.09583255000357     
           2           1
           2          22   1.09583255000357     
           3           1
           2          23  0.770028113110837     
           3           1
           2          24  0.770028113110837     
           4           1
           2          25  0.770028113110840     
           4           1
           2          26  0.770028113110840     
           5           2
           2          27   1.14855023448172     
           5           2
           2          28   1.14855023448172     
           6           2
           2          29  0.845083817003245     
           6           2
           2          30  0.845083817003245     
           7           2
           2          31  0.845083817003245     
           7           2
           2          32  0.845083817003245     
           8           2
           2          33   1.15034798663465     
           8           2
           2          34   1.15034798663465     
           9           2
           2          35  0.778862818596727     
           9           2
           2          36  0.778862818596727     
       3           1           0
           3           1   1.37825102862698     
           1           0
           3           2   1.37825102862698     
           2           1
           3           3   1.22654747689019     
           2           1
           3           4   1.22654747689019     
           3           1
           3           5  0.768156489759850     
           3           1
           3           6  0.768156489759850     
           4           1
           3           7  0.768156489759853     
           4           1
           3           8  0.768156489759853     
           5           2
           3           9   1.10880661301140     
           5           2
           3          10   1.10880661301140     
           6           2
           3          11  0.852837943034183     
           6           2
           3          12  0.852837943034183     
           7           2
           3          13  0.852837943034183     
           7           2
           3          14  0.852837943034183     
           8           2
           3          15   1.14636932709284     
           8           2
           3          16   1.14636932709284     
           9           2
           3          17  0.778328232998531     
           9           2
           3          18  0.778328232998531     
           1           0
           3          19   1.37825102862698     
           1           0
           3          20   1.37825102862698     
           2           1
           3          21   1.22654747689019     
           2           1
           3          22   1.22654747689019     
           3           1
           3          23  0.768156489759850     
           3           1
           3          24  0.768156489759850     
           4           1
           3          25  0.768156489759853     
           4           1
           3          26  0.768156489759853     
           5           2
           3          27   1.10880661301140     
           5           2
           3          28   1.10880661301140     
           6           2
           3          29  0.852837943034183     
           6           2
           3          30  0.852837943034183     
           7           2
           3          31  0.852837943034183     
           7           2
           3          32  0.852837943034183     
           8           2
           3          33   1.14636932709284     
           8           2
           3          34   1.14636932709284     
           9           2
           3          35  0.778328232998531     
           9           2
           3          36  0.778328232998531     
       4           1           0
           4           1   1.32905967653069     
           1           0
           4           2   1.32905967653069     
           2           1
           4           3   1.29089654557211     
           2           1
           4           4   1.29089654557211     
           3           1
           4           5  0.767215380008016     
           3           1
           4           6  0.767215380008016     
           4           1
           4           7  0.767215380008019     
           4           1
           4           8  0.767215380008019     
           5           2
           4           9   1.09066743674927     
           5           2
           4          10   1.09066743674927     
           6           2
           4          11  0.857260839098313     
           6           2
           4          12  0.857260839098313     
           7           2
           4          13  0.857260839098313     
           7           2
           4          14  0.857260839098313     
           8           2
           4          15   1.14387047206336     
           8           2
           4          16   1.14387047206336     
           9           2
           4          17  0.778246270457833     
           9           2
           4          18  0.778246270457833     
           1           0
           4          19   1.32905967653069     
           1           0
           4          20   1.32905967653069     
           2           1
           4          21   1.29089654557211     
           2           1
           4          22   1.29089654557211     
           3           1
           4          23  0.767215380008016     
           3           1
           4          24  0.767215380008016     
           4           1
           4          25  0.767215380008019     
           4           1
           4          26  0.767215380008019     
           5           2
           4          27   1.09066743674927     
           5           2
           4          28   1.09066743674927     
           6           2
           4          29  0.857260839098313     
           6           2
           4          30  0.857260839098313     
           7           2
           4          31  0.857260839098312     
           7           2
           4          32  0.857260839098312     
           8           2
           4          33   1.14387047206336     
           8           2
           4          34   1.14387047206336     
           9           2
           4          35  0.778246270457833     
           9           2
           4          36  0.778246270457833     
       5           1           0
           5           1   1.37825102862698     
           1           0
           5           2   1.37825102862698     
           2           1
           5           3   1.22654747689019     
           2           1
           5           4   1.22654747689019     
           3           1
           5           5  0.768156489759850     
           3           1
           5           6  0.768156489759850     
           4           1
           5           7  0.768156489759853     
           4           1
           5           8  0.768156489759853     
           5           2
           5           9   1.10880661301140     
           5           2
           5          10   1.10880661301140     
           6           2
           5          11  0.852837943034183     
           6           2
           5          12  0.852837943034183     
           7           2
           5          13  0.852837943034183     
           7           2
           5          14  0.852837943034183     
           8           2
           5          15   1.14636932709284     
           8           2
           5          16   1.14636932709284     
           9           2
           5          17  0.778328232998531     
           9           2
           5          18  0.778328232998531     
           1           0
           5          19   1.37825102862698     
           1           0
           5          20   1.37825102862698     
           2           1
           5          21   1.22654747689019     
           2           1
           5          22   1.22654747689019     
           3           1
           5          23  0.768156489759850     
           3           1
           5          24  0.768156489759850     
           4           1
           5          25  0.768156489759853     
           4           1
           5          26  0.768156489759853     
           5           2
           5          27   1.10880661301140     
           5           2
           5          28   1.10880661301140     
           6           2
           5          29  0.852837943034183     
           6           2
           5          30  0.852837943034183     
           7           2
           5          31  0.852837943034183     
           7           2
           5          32  0.852837943034183     
           8           2
           5          33   1.14636932709284     
           8           2
           5          34   1.14636932709284     
           9           2
           5          35  0.778328232998531     
           9           2
           5          36  0.778328232998531     
       6           1           0
           6           1   1.47792456642427     
           1           0
           6           2   1.47792456642427     
           2           1
           6           3   1.09583255000357     
           2           1
           6           4   1.09583255000357     
           3           1
           6           5  0.770028113110838     
           3           1
           6           6  0.770028113110838     
           4           1
           6           7  0.770028113110840     
           4           1
           6           8  0.770028113110840     
           5           2
           6           9   1.14855023448172     
           5           2
           6          10   1.14855023448172     
           6           2
           6          11  0.845083817003245     
           6           2
           6          12  0.845083817003245     
           7           2
           6          13  0.845083817003245     
           7           2
           6          14  0.845083817003245     
           8           2
           6          15   1.15034798663465     
           8           2
           6          16   1.15034798663465     
           9           2
           6          17  0.778862818596728     
           9           2
           6          18  0.778862818596728     
           1           0
           6          19   1.47792456642427     
           1           0
           6          20   1.47792456642427     
           2           1
           6          21   1.09583255000357     
           2           1
           6          22   1.09583255000357     
           3           1
           6          23  0.770028113110837     
           3           1
           6          24  0.770028113110837     
           4           1
           6          25  0.770028113110840     
           4           1
           6          26  0.770028113110840     
           5           2
           6          27   1.14855023448172     
           5           2
           6          28   1.14855023448172     
           6           2
           6          29  0.845083817003245     
           6           2
           6          30  0.845083817003245     
           7           2
           6          31  0.845083817003245     
           7           2
           6          32  0.845083817003245     
           8           2
           6          33   1.15034798663465     
           8           2
           6          34   1.15034798663465     
           9           2
           6          35  0.778862818596727     
           9           2
           6          36  0.778862818596727     
       7           1           0
           7           1   1.45611080408031     
           1           0
           7           2   1.45611080408031     
           2           1
           7           3   1.01550266920766     
           2           1
           7           4   1.01550266920766     
           3           1
           7           5  0.766746556725476     
           3           1
           7           6  0.766746556725476     
           4           1
           7           7  0.851954111029406     
           4           1
           7           8  0.851954111029406     
           5           2
           7           9   1.14751096747165     
           5           2
           7          10   1.14751096747165     
           6           2
           7          11  0.838637600234951     
           6           2
           7          12  0.838637600234951     
           7           2
           7          13  0.871296095359518     
           7           2
           7          14  0.871296095359518     
           8           2
           7          15   1.13544703718035     
           8           2
           7          16   1.13544703718035     
           9           2
           7          17  0.792921926683029     
           9           2
           7          18  0.792921926683029     
           1           0
           7          19   1.45611080408031     
           1           0
           7          20   1.45611080408031     
           2           1
           7          21   1.01550266920766     
           2           1
           7          22   1.01550266920766     
           3           1
           7          23  0.766746556725476     
           3           1
           7          24  0.766746556725476     
           4           1
           7          25  0.851954111029406     
           4           1
           7          26  0.851954111029406     
           5           2
           7          27   1.14751096747165     
           5           2
           7          28   1.14751096747165     
           6           2
           7          29  0.838637600234951     
           6           2
           7          30  0.838637600234951     
           7           2
           7          31  0.871296095359518     
           7           2
           7          32  0.871296095359518     
           8           2
           7          33   1.13544703718035     
           8           2
           7          34   1.13544703718035     
           9           2
           7          35  0.792921926683030     
           9           2
           7          36  0.792921926683030     
       8           1           0
           8           1   1.41068012347777     
           1           0
           8           2   1.41068012347777     
           2           1
           8           3   1.07733019512245     
           2           1
           8           4   1.07733019512245     
           3           1
           8           5  0.765855317627295     
           3           1
           8           6  0.765855317627295     
           4           1
           8           7  0.848277274688029     
           4           1
           8           8  0.848277274688029     
           5           2
           8           9   1.12582542785911     
           5           2
           8          10   1.12582542785911     
           6           2
           8          11  0.842422339733032     
           6           2
           8          12  0.842422339733032     
           7           2
           8          13  0.879869008484571     
           7           2
           8          14  0.879869008484571     
           8           2
           8          15   1.13328318095003     
           8           2
           8          16   1.13328318095003     
           9           2
           8          17  0.792752882300584     
           9           2
           8          18  0.792752882300584     
           1           0
           8          19   1.41068012347777     
           1           0
           8          20   1.41068012347777     
           2           1
           8          21   1.07733019512245     
           2           1
           8          22   1.07733019512245     
           3           1
           8          23  0.765855317627295     
           3           1
           8          24  0.765855317627295     
           4           1
           8          25  0.848277274688029     
           4           1
           8          26  0.848277274688029     
           5           2
           8          27   1.12582542785911     
           5           2
           8          28   1.12582542785911     
           6           2
           8          29  0.842422339733033     
           6           2
           8          30  0.842422339733033     
           7           2
           8          31  0.879869008484571     
           7           2
           8          32  0.879869008484571     
           8           2
           8          33   1.13328318095003     
           8           2
           8          34   1.13328318095003     
           9           2
           8          35  0.792752882300585     
           9           2
           8          36  0.792752882300585     
       9           1           0
           9           1   1.32091518328162     
           1           0
           9           2   1.32091518328162     
           2           1
           9           3   1.19875741691670     
           2           1
           9           4   1.19875741691670     
           3           1
           9           5  0.764122099864689     
           3           1
           9           6  0.764122099864689     
           4           1
           9           7  0.841007371451539     
           4           1
           9           8  0.841007371451539     
           5           2
           9           9   1.08386685350351     
           5           2
           9          10   1.08386685350351     
           6           2
           9          11  0.850374966745035     
           6           2
           9          12  0.850374966745035     
           7           2
           9          13  0.896968040926907     
           7           2
           9          14  0.896968040926907     
           8           2
           9          15   1.12912354270032     
           8           2
           9          16   1.12912354270032     
           9           2
           9          17  0.792455472955070     
           9           2
           9          18  0.792455472955070     
           1           0
           9          19   1.32091518328162     
           1           0
           9          20   1.32091518328162     
           2           1
           9          21   1.19875741691670     
           2           1
           9          22   1.19875741691670     
           3           1
           9          23  0.764122099864689     
           3           1
           9          24  0.764122099864689     
           4           1
           9          25  0.841007371451539     
           4           1
           9          26  0.841007371451539     
           5           2
           9          27   1.08386685350351     
           5           2
           9          28   1.08386685350351     
           6           2
           9          29  0.850374966745035     
           6           2
           9          30  0.850374966745035     
           7           2
           9          31  0.896968040926907     
           7           2
           9          32  0.896968040926907     
           8           2
           9          33   1.12912354270032     
           8           2
           9          34   1.12912354270032     
           9           2
           9          35  0.792455472955070     
           9           2
           9          36  0.792455472955070     
      10
           1           0
          10           1   1.27657661832584     
           1           0
          10           2   1.27657661832584     
           2           1
          10           3   1.25847911232945     
           2           1
          10           4   1.25847911232945     
           3           1
          10           5  0.763221118330275     
           3           1
          10           6  0.763221118330275     
           4           1
          10           7  0.837353239853915     
           4           1
          10           8  0.837353239853915     
           5           2
          10           9   1.06419895502610     
           5           2
          10          10   1.06419895502610     
           6           2
          10          11  0.854422653691202     
           6           2
          10          12  0.854422653691202     
           7           2
          10          13  0.905461861749415     
           7           2
          10          14  0.905461861749415     
           8           2
          10          15   1.12691203376629     
           8           2
          10          16   1.12691203376629     
           9           2
          10          17  0.792026848680900     
           9           2
          10          18  0.792026848680900     
           1           0
          10          19   1.27657661832584     
           1           0
          10          20   1.27657661832584     
           2           1
          10          21   1.25847911232945     
           2           1
          10          22   1.25847911232945     
           3           1
          10          23  0.763221118330275     
           3           1
          10          24  0.763221118330275     
           4           1
          10          25  0.837353239853915     
           4           1
          10          26  0.837353239853915     
           5           2
          10          27   1.06419895502610     
           5           2
          10          28   1.06419895502610     
           6           2
          10          29  0.854422653691203     
           6           2
          10          30  0.854422653691203     
           7           2
          10          31  0.905461861749415     
           7           2
          10          32  0.905461861749415     
           8           2
          10          33   1.12691203376629     
           8           2
          10          34   1.12691203376629     
           9           2
          10          35  0.792026848680899     
           9           2
          10          36  0.792026848680899     
      11           1           0
          11           1   1.32091518328162     
           1           0
          11           2   1.32091518328162     
           2           1
          11           3   1.19875741691670     
           2           1
          11           4   1.19875741691670     
           3           1
          11           5  0.764122099864689     
           3           1
          11           6  0.764122099864689     
           4           1
          11           7  0.841007371451539     
           4           1
          11           8  0.841007371451539     
           5           2
          11           9   1.08386685350351     
           5           2
          11          10   1.08386685350351     
           6           2
          11          11  0.850374966745035     
           6           2
          11          12  0.850374966745035     
           7           2
          11          13  0.896968040926907     
           7           2
          11          14  0.896968040926907     
           8           2
          11          15   1.12912354270032     
           8           2
          11          16   1.12912354270032     
           9           2
          11          17  0.792455472955070     
           9           2
          11          18  0.792455472955070     
           1           0
          11          19   1.32091518328162     
           1           0
          11          20   1.32091518328162     
           2           1
          11          21   1.19875741691670     
           2           1
          11          22   1.19875741691670     
           3           1
          11          23  0.764122099864689     
           3           1
          11          24  0.764122099864689     
           4           1
          11          25  0.841007371451539     
           4           1
          11          26  0.841007371451539     
           5           2
          11          27   1.08386685350351     
           5           2
          11          28   1.08386685350351     
           6           2
          11          29  0.850374966745035     
           6           2
          11          30  0.850374966745035     
           7           2
          11          31  0.896968040926907     
           7           2
          11          32  0.896968040926907     
           8           2
          11          33   1.12912354270032     
           8           2
          11          34   1.12912354270032     
           9           2
          11          35  0.792455472955070     
           9           2
          11          36  0.792455472955070     
      12           1           0
          12           1   1.41068012347777     
           1           0
          12           2   1.41068012347777     
           2           1
          12           3   1.07733019512245     
           2           1
          12           4   1.07733019512245     
           3           1
          12           5  0.765855317627295     
           3           1
          12           6  0.765855317627295     
           4           1
          12           7  0.848277274688029     
           4           1
          12           8  0.848277274688029     
           5           2
          12           9   1.12582542785911     
           5           2
          12          10   1.12582542785911     
           6           2
          12          11  0.842422339733032     
           6           2
          12          12  0.842422339733032     
           7           2
          12          13  0.879869008484571     
           7           2
          12          14  0.879869008484571     
           8           2
          12          15   1.13328318095003     
           8           2
          12          16   1.13328318095003     
           9           2
          12          17  0.792752882300584     
           9           2
          12          18  0.792752882300584     
           1           0
          12          19   1.41068012347776     
           1           0
          12          20   1.41068012347776     
           2           1
          12          21   1.07733019512245     
           2           1
          12          22   1.07733019512245     
           3           1
          12          23  0.765855317627295     
           3           1
          12          24  0.765855317627295     
           4           1
          12          25  0.848277274688029     
           4           1
          12          26  0.848277274688029     
           5           2
          12          27   1.12582542785911     
           5           2
          12          28   1.12582542785911     
           6           2
          12          29  0.842422339733032     
           6           2
          12          30  0.842422339733032     
           7           2
          12          31  0.879869008484571     
           7           2
          12          32  0.879869008484571     
           8           2
          12          33   1.13328318095003     
           8           2
          12          34   1.13328318095003     
           9           2
          12          35  0.792752882300584     
           9           2
          12          36  0.792752882300584     
      13           1           0
          13           1   1.28068887137750     
           1           0
          13           2   1.28068887137750     
           2           1
          13           3  0.981469119434796     
           2           1
          13           4  0.981469119434796     
           3           1
          13           5  0.756190485537139     
           3           1
          13           6  0.756190485537139     
           4           1
          13           7   1.04404813253820     
           4           1
          13           8   1.04404813253820     
           5           2
          13           9   1.09559004886936     
           5           2
          13          10   1.09559004886936     
           6           2
          13          11  0.833134000329565     
           6           2
          13          12  0.833134000329565     
           7           2
          13          13  0.947420027939964     
           7           2
          13          14  0.947420027939964     
           8           2
          13          15   1.09871939564389     
           8           2
          13          16   1.09871939564389     
           9           2
          13          17  0.828452566359861     
           9           2
          13          18  0.828452566359861     
           1           0
          13          19   1.28068887137750     
           1           0
          13          20   1.28068887137750     
           2           1
          13          21  0.981469119434796     
           2           1
          13          22  0.981469119434796     
           3           1
          13          23  0.756190485537139     
           3           1
          13          24  0.756190485537139     
           4           1
          13          25   1.04404813253820     
           4           1
          13          26   1.04404813253820     
           5           2
          13          27   1.09559004886936     
           5           2
          13          28   1.09559004886936     
           6           2
          13          29  0.833134000329565     
           6           2
          13          30  0.833134000329565     
           7           2
          13          31  0.947420027939965     
           7           2
          13          32  0.947420027939965     
           8           2
          13          33   1.09871939564389     
           8           2
          13          34   1.09871939564389     
           9           2
          13          35  0.828452566359861     
           9           2
          13          36  0.828452566359861     
      14           1           0
          14           1   1.24705567700168     
           1           0
          14           2   1.24705567700168     
           2           1
          14           3   1.03140954866371     
           2           1
          14           4   1.03140954866371     
           3           1
          14           5  0.755382132847324     
           3           1
          14           6  0.755382132847324     
           4           1
          14           7   1.03465056121084     
           4           1
          14           8   1.03465056121084     
           5           2
          14           9   1.07117186001333     
           5           2
          14          10   1.07117186001333     
           6           2
          14          11  0.836342188025992     
           6           2
          14          12  0.836342188025992     
           7           2
          14          13  0.966049421055073     
           7           2
          14          14  0.966049421055073     
           8           2
          14          15   1.09583569876967     
           8           2
          14          16   1.09583569876967     
           9           2
          14          17  0.828103016956993     
           9           2
          14          18  0.828103016956993     
           1           0
          14          19   1.24705567700167     
           1           0
          14          20   1.24705567700167     
           2           1
          14          21   1.03140954866371     
           2           1
          14          22   1.03140954866371     
           3           1
          14          23  0.755382132847324     
           3           1
          14          24  0.755382132847324     
           4           1
          14          25   1.03465056121084     
           4           1
          14          26   1.03465056121084     
           5           2
          14          27   1.07117186001333     
           5           2
          14          28   1.07117186001333     
           6           2
          14          29  0.836342188025992     
           6           2
          14          30  0.836342188025992     
           7           2
          14          31  0.966049421055073     
           7           2
          14          32  0.966049421055073     
           8           2
          14          33   1.09583569876967     
           8           2
          14          34   1.09583569876967     
           9           2
          14          35  0.828103016956993     
           9           2
          14          36  0.828103016956993     
      15           1           0
          15           1   1.18045734258711     
           1           0
          15           2   1.18045734258711     
           2           1
          15           3   1.13002266754887     
           2           1
          15           4   1.13002266754887     
           3           1
          15           5  0.753889009078416     
           3           1
          15           6  0.753889009078416     
           4           1
          15           7   1.01600992494860     
           4           1
          15           8   1.01600992494860     
           5           2
          15           9   1.02398815358260     
           5           2
          15          10   1.02398815358260     
           6           2
          15          11  0.843623944831220     
           6           2
          15          12  0.843623944831220     
           7           2
          15          13   1.00322837716609     
           7           2
          15          14   1.00322837716609     
           8           2
          15          15   1.09021046765442     
           8           2
          15          16   1.09021046765442     
           9           2
          15          17  0.827562002729408     
           9           2
          15          18  0.827562002729408     
           1           0
          15          19   1.18045734258711     
           1           0
          15          20   1.18045734258711     
           2           1
          15          21   1.13002266754887     
           2           1
          15          22   1.13002266754887     
           3           1
          15          23  0.753889009078416     
           3           1
          15          24  0.753889009078416     
           4           1
          15          25   1.01600992494860     
           4           1
          15          26   1.01600992494860     
           5           2
          15          27   1.02398815358260     
           5           2
          15          28   1.02398815358260     
           6           2
          15          29  0.843623944831220     
           6           2
          15          30  0.843623944831220     
           7           2
          15          31   1.00322837716609     
           7           2
          15          32   1.00322837716609     
           8           2
          15          33   1.09021046765442     
           8           2
          15          34   1.09021046765442     
           9           2
          15          35  0.827562002729408     
           9           2
          15          36  0.827562002729408     
      16           1           0
          16           1   1.14748954535437     
           1           0
          16           2   1.14748954535437     
           2           1
          16           3   1.17862187346178     
           2           1
          16           4   1.17862187346178     
           3           1
          16           5  0.753145560649579     
           3           1
          16           6  0.753145560649579     
           4           1
          16           7   1.00682541753913     
           4           1
          16           8   1.00682541753913     
           5           2
          16           9   1.00106495638622     
           5           2
          16          10   1.00106495638622     
           6           2
          16          11  0.847298096510760     
           6           2
          16          12  0.847298096510760     
           7           2
          16          13   1.02172902062341     
           7           2
          16          14   1.02172902062341     
           8           2
          16          15   1.08760564528059     
           8           2
          16          16   1.08760564528059     
           9           2
          16          17  0.827347736408215     
           9           2
          16          18  0.827347736408215     
           1           0
          16          19   1.14748954535437     
           1           0
          16          20   1.14748954535437     
           2           1
          16          21   1.17862187346178     
           2           1
          16          22   1.17862187346178     
           3           1
          16          23  0.753145560649579     
           3           1
          16          24  0.753145560649579     
           4           1
          16          25   1.00682541753914     
           4           1
          16          26   1.00682541753914     
           5           2
          16          27   1.00106495638622     
           5           2
          16          28   1.00106495638622     
           6           2
          16          29  0.847298096510760     
           6           2
          16          30  0.847298096510760     
           7           2
          16          31   1.02172902062341     
           7           2
          16          32   1.02172902062341     
           8           2
          16          33   1.08760564528059     
           8           2
          16          34   1.08760564528059     
           9           2
          16          35  0.827347736408215     
           9           2
          16          36  0.827347736408215     
      17           1           0
          17           1   1.18045734258711     
           1           0
          17           2   1.18045734258711     
           2           1
          17           3   1.13002266754887     
           2           1
          17           4   1.13002266754887     
           3           1
          17           5  0.753889009078416     
           3           1
          17           6  0.753889009078416     
           4           1
          17           7   1.01600992494860     
           4           1
          17           8   1.01600992494860     
           5           2
          17           9   1.02398815358260     
           5           2
          17          10   1.02398815358260     
           6           2
          17          11  0.843623944831220     
           6           2
          17          12  0.843623944831220     
           7           2
          17          13   1.00322837716609     
           7           2
          17          14   1.00322837716609     
           8           2
          17          15   1.09021046765442     
           8           2
          17          16   1.09021046765442     
           9           2
          17          17  0.827562002729408     
           9           2
          17          18  0.827562002729408     
           1           0
          17          19   1.18045734258711     
           1           0
          17          20   1.18045734258711     
           2           1
          17          21   1.13002266754887     
           2           1
          17          22   1.13002266754887     
           3           1
          17          23  0.753889009078416     
           3           1
          17          24  0.753889009078416     
           4           1
          17          25   1.01600992494860     
           4           1
          17          26   1.01600992494860     
           5           2
          17          27   1.02398815358260     
           5           2
          17          28   1.02398815358260     
           6           2
          17          29  0.843623944831220     
           6           2
          17          30  0.843623944831220     
           7           2
          17          31   1.00322837716609     
           7           2
          17          32   1.00322837716609     
           8           2
          17          33   1.09021046765442     
           8           2
          17          34   1.09021046765442     
           9           2
          17          35  0.827562002729408     
           9           2
          17          36  0.827562002729408     
      18           1           0
          18           1   1.24705567700168     
           1           0
          18           2   1.24705567700168     
           2           1
          18           3   1.03140954866371     
           2           1
          18           4   1.03140954866371     
           3           1
          18           5  0.755382132847324     
           3           1
          18           6  0.755382132847324     
           4           1
          18           7   1.03465056121084     
           4           1
          18           8   1.03465056121084     
           5           2
          18           9   1.07117186001333     
           5           2
          18          10   1.07117186001333     
           6           2
          18          11  0.836342188025992     
           6           2
          18          12  0.836342188025992     
           7           2
          18          13  0.966049421055073     
           7           2
          18          14  0.966049421055073     
           8           2
          18          15   1.09583569876967     
           8           2
          18          16   1.09583569876967     
           9           2
          18          17  0.828103016956993     
           9           2
          18          18  0.828103016956993     
           1           0
          18          19   1.24705567700167     
           1           0
          18          20   1.24705567700167     
           2           1
          18          21   1.03140954866371     
           2           1
          18          22   1.03140954866371     
           3           1
          18          23  0.755382132847324     
           3           1
          18          24  0.755382132847324     
           4           1
          18          25   1.03465056121084     
           4           1
          18          26   1.03465056121084     
           5           2
          18          27   1.07117186001333     
           5           2
          18          28   1.07117186001333     
           6           2
          18          29  0.836342188025992     
           6           2
          18          30  0.836342188025992     
           7           2
          18          31  0.966049421055073     
           7           2
          18          32  0.966049421055073     
           8           2
          18          33   1.09583569876967     
           8           2
          18          34   1.09583569876967     
           9           2
          18          35  0.828103016956993     
           9           2
          18          36  0.828103016956993     
      19           1           0
          19           1   1.09390211931203     
           1           0
          19           2   1.09390211931203     
           2           1
          19           3  0.943232756245401     
           2           1
          19           4  0.943232756245401     
           3           1
          19           5  0.744195996927437     
           3           1
          19           6  0.744195996927437     
           4           1
          19           7   1.24072391509968     
           4           1
          19           8   1.24072391509968     
           5           2
          19           9   1.04066141114896     
           5           2
          19          10   1.04066141114896     
           6           2
          19          11  0.826415711684685     
           6           2
          19          12  0.826415711684685     
           7           2
          19          13   1.03189884960136     
           7           2
          19          14   1.03189884960136     
           8           2
          19          15   1.06587049947074     
           8           2
          19          16   1.06587049947074     
           9           2
          19          17  0.868849354532563     
           9           2
          19          18  0.868849354532563     
           1           0
          19          19   1.09390211931203     
           1           0
          19          20   1.09390211931203     
           2           1
          19          21  0.943232756245400     
           2           1
          19          22  0.943232756245400     
           3           1
          19          23  0.744195996927437     
           3           1
          19          24  0.744195996927437     
           4           1
          19          25   1.24072391509968     
           4           1
          19          26   1.24072391509968     
           5           2
          19          27   1.04066141114896     
           5           2
          19          28   1.04066141114896     
           6           2
          19          29  0.826415711684685     
           6           2
          19          30  0.826415711684685     
           7           2
          19          31   1.03189884960136     
           7           2
          19          32   1.03189884960136     
           8           2
          19          33   1.06587049947074     
           8           2
          19          34   1.06587049947074     
           9           2
          19          35  0.868849354532563     
           9           2
          19          36  0.868849354532563     
      20
           1           0
          20           1   1.07205555301163     
           1           0
          20           2   1.07205555301163     
           2           1
          20           3  0.980699702864756     
           2           1
          20           4  0.980699702864756     
           3           1
          20           5  0.743593720113715     
           3           1
          20           6  0.743593720113715     
           4           1
          20           7   1.22698005052675     
           4           1
          20           8   1.22698005052675     
           5           2
          20           9   1.01409159205057     
           5           2
          20          10   1.01409159205057     
           6           2
          20          11  0.829678549396244     
           6           2
          20          12  0.829678549396244     
           7           2
          20          13   1.06032116357168     
           7           2
          20          14   1.06032116357168     
           8           2
          20          15   1.06193845385603     
           8           2
          20          16   1.06193845385603     
           9           2
          20          17  0.868578813967710     
           9           2
          20          18  0.868578813967710     
           1           0
          20          19   1.07205555301163     
           1           0
          20          20   1.07205555301163     
           2           1
          20          21  0.980699702864755     
           2           1
          20          22  0.980699702864755     
           3           1
          20          23  0.743593720113715     
           3           1
          20          24  0.743593720113715     
           4           1
          20          25   1.22698005052675     
           4           1
          20          26   1.22698005052675     
           5           2
          20          27   1.01409159205057     
           5           2
          20          28   1.01409159205057     
           6           2
          20          29  0.829678549396244     
           6           2
          20          30  0.829678549396244     
           7           2
          20          31   1.06032116357168     
           7           2
          20          32   1.06032116357168     
           8           2
          20          33   1.06193845385603     
           8           2
          20          34   1.06193845385603     
           9           2
          20          35  0.868578813967710     
           9           2
          20          36  0.868578813967710     
      21           1           0
          21           1   1.02866726378790     
           1           0
          21           2   1.02866726378790     
           2           1
          21           3   1.05493172446865     
           2           1
          21           4   1.05493172446865     
           3           1
          21           5  0.742258398657582     
           3           1
          21           6  0.742258398657582     
           4           1
          21           7   1.19953830560791     
           4           1
          21           8   1.19953830560791     
           5           2
          21           9  0.961829891361299     
           5           2
          21          10  0.961829891361299     
           6           2
          21          11  0.835894378374292     
           6           2
          21          12  0.835894378374292     
           7           2
          21          13   1.11669830669238     
           7           2
          21          14   1.11669830669238     
           8           2
          21          15   1.05369776389091     
           8           2
          21          16   1.05369776389091     
           9           2
          21          17  0.867372130695310     
           9           2
          21          18  0.867372130695310     
           1           0
          21          19   1.02866726378790     
           1           0
          21          20   1.02866726378790     
           2           1
          21          21   1.05493172446865     
           2           1
          21          22   1.05493172446865     
           3           1
          21          23  0.742258398657582     
           3           1
          21          24  0.742258398657582     
           4           1
          21          25   1.19953830560791     
           4           1
          21          26   1.19953830560791     
           5           2
          21          27  0.961829891361298     
           5           2
          21          28  0.961829891361298     
           6           2
          21          29  0.835894378374291     
           6           2
          21          30  0.835894378374291     
           7           2
          21          31   1.11669830669238     
           7           2
          21          32   1.11669830669238     
           8           2
          21          33   1.05369776389091     
           8           2
          21          34   1.05369776389091     
           9           2
          21          35  0.867372130695309     
           9           2
          21          36  0.867372130695309     
      22           1           0
          22           1   1.00712552284991     
           1           0
          22           2   1.00712552284991     
           2           1
          22           3   1.09163558521149     
           2           1
          22           4   1.09163558521149     
           3           1
          22           5  0.741658910507260     
           3           1
          22           6  0.741658910507260     
           4           1
          22           7   1.18591916731551     
           4           1
          22           8   1.18591916731551     
           5           2
          22           9  0.935881182997198     
           5           2
          22          10  0.935881182997198     
           6           2
          22          11  0.839185272602023     
           6           2
          22          12  0.839185272602023     
           7           2
          22          13   1.14456982433580     
           7           2
          22          14   1.14456982433580     
           8           2
          22          15   1.04976127139467     
           8           2
          22          16   1.04976127139467     
           9           2
          22          17  0.866983203702108     
           9           2
          22          18  0.866983203702108     
           1           0
          22          19   1.00712552284991     
           1           0
          22          20   1.00712552284991     
           2           1
          22          21   1.09163558521149     
           2           1
          22          22   1.09163558521149     
           3           1
          22          23  0.741658910507259     
           3           1
          22          24  0.741658910507259     
           4           1
          22          25   1.18591916731551     
           4           1
          22          26   1.18591916731551     
           5           2
          22          27  0.935881182997198     
           5           2
          22          28  0.935881182997198     
           6           2
          22          29  0.839185272602023     
           6           2
          22          30  0.839185272602023     
           7           2
          22          31   1.14456982433580     
           7           2
          22          32   1.14456982433580     
           8           2
          22          33   1.04976127139467     
           8           2
          22          34   1.04976127139467     
           9           2
          22          35  0.866983203702108     
           9           2
          22          36  0.866983203702108     
      23           1           0
          23           1   1.02866726378790     
           1           0
          23           2   1.02866726378790     
           2           1
          23           3   1.05493172446865     
           2           1
          23           4   1.05493172446865     
           3           1
          23           5  0.742258398657582     
           3           1
          23           6  0.742258398657582     
           4           1
          23           7   1.19953830560791     
           4           1
          23           8   1.19953830560791     
           5           2
          23           9  0.961829891361299     
           5           2
          23          10  0.961829891361299     
           6           2
          23          11  0.835894378374292     
           6           2
          23          12  0.835894378374292     
           7           2
          23          13   1.11669830669238     
           7           2
          23          14   1.11669830669238     
           8           2
          23          15   1.05369776389091     
           8           2
          23          16   1.05369776389091     
           9           2
          23          17  0.867372130695310     
           9           2
          23          18  0.867372130695310     
           1           0
          23          19   1.02866726378790     
           1           0
          23          20   1.02866726378790     
           2           1
          23          21   1.05493172446865     
           2           1
          23          22   1.05493172446865     
           3           1
          23          23  0.742258398657582     
           3           1
          23          24  0.742258398657582     
           4           1
          23          25   1.19953830560791     
           4           1
          23          26   1.19953830560791     
           5           2
          23          27  0.961829891361298     
           5           2
          23          28  0.961829891361298     
           6           2
          23          29  0.835894378374291     
           6           2
          23          30  0.835894378374291     
           7           2
          23          31   1.11669830669238     
           7           2
          23          32   1.11669830669238     
           8           2
          23          33   1.05369776389091     
           8           2
          23          34   1.05369776389091     
           9           2
          23          35  0.867372130695309     
           9           2
          23          36  0.867372130695309     
      24           1           0
          24           1   1.07205555301163     
           1           0
          24           2   1.07205555301163     
           2           1
          24           3  0.980699702864756     
           2           1
          24           4  0.980699702864756     
           3           1
          24           5  0.743593720113715     
           3           1
          24           6  0.743593720113715     
           4           1
          24           7   1.22698005052675     
           4           1
          24           8   1.22698005052675     
           5           2
          24           9   1.01409159205057     
           5           2
          24          10   1.01409159205057     
           6           2
          24          11  0.829678549396244     
           6           2
          24          12  0.829678549396244     
           7           2
          24          13   1.06032116357168     
           7           2
          24          14   1.06032116357168     
           8           2
          24          15   1.06193845385603     
           8           2
          24          16   1.06193845385603     
           9           2
          24          17  0.868578813967710     
           9           2
          24          18  0.868578813967710     
           1           0
          24          19   1.07205555301163     
           1           0
          24          20   1.07205555301163     
           2           1
          24          21  0.980699702864755     
           2           1
          24          22  0.980699702864755     
           3           1
          24          23  0.743593720113715     
           3           1
          24          24  0.743593720113715     
           4           1
          24          25   1.22698005052675     
           4           1
          24          26   1.22698005052675     
           5           2
          24          27   1.01409159205057     
           5           2
          24          28   1.01409159205057     
           6           2
          24          29  0.829678549396243     
           6           2
          24          30  0.829678549396243     
           7           2
          24          31   1.06032116357168     
           7           2
          24          32   1.06032116357168     
           8           2
          24          33   1.06193845385603     
           8           2
          24          34   1.06193845385603     
           9           2
          24          35  0.868578813967709     
           9           2
          24          36  0.868578813967709     
      25           1           0
          25           1  0.978885268550748     
           1           0
          25           2  0.978885268550748     
           2           1
          25           3  0.918543275967799     
           2           1
          25           4  0.918543275967799     
           3           1
          25           5  0.736529942482027     
           3           1
          25           6  0.736529942482027     
           4           1
          25           7   1.35743980742738     
           4           1
          25           8   1.35743980742738     
           5           2
          25           9   1.00714641525271     
           5           2
          25          10   1.00714641525271     
           6           2
          25          11  0.822243048161897     
           6           2
          25          12  0.822243048161897     
           7           2
          25          13   1.08563158174365     
           7           2
          25          14   1.08563158174365     
           8           2
          25          15   1.04957544120273     
           8           2
          25          16   1.04957544120273     
           9           2
          25          17  0.895572812510366     
           9           2
          25          18  0.895572812510366     
           1           0
          25          19  0.978885268550748     
           1           0
          25          20  0.978885268550748     
           2           1
          25          21  0.918543275967799     
           2           1
          25          22  0.918543275967799     
           3           1
          25          23  0.736529942482027     
           3           1
          25          24  0.736529942482027     
           4           1
          25          25   1.35743980742738     
           4           1
          25          26   1.35743980742738     
           5           2
          25          27   1.00714641525271     
           5           2
          25          28   1.00714641525271     
           6           2
          25          29  0.822243048161897     
           6           2
          25          30  0.822243048161897     
           7           2
          25          31   1.08563158174365     
           7           2
          25          32   1.08563158174365     
           8           2
          25          33   1.04957544120273     
           8           2
          25          34   1.04957544120273     
           9           2
          25          35  0.895572812510366     
           9           2
          25          36  0.895572812510366     
      26           1           0
          26           1  0.963866186290618     
           1           0
          26           2  0.963866186290618     
           2           1
          26           3  0.948418138043527     
           2           1
          26           4  0.948418138043527     
           3           1
          26           5  0.735965602316641     
           3           1
          26           6  0.735965602316641     
           4           1
          26           7   1.34188122694997     
           4           1
          26           8   1.34188122694997     
           5           2
          26           9  0.979521285065781     
           5           2
          26          10  0.979521285065781     
           6           2
          26          11  0.825471528524664     
           6           2
          26          12  0.825471528524664     
           7           2
          26          13   1.11957471067109     
           7           2
          26          14   1.11957471067109     
           8           2
          26          15   1.04440746597856     
           8           2
          26          16   1.04440746597856     
           9           2
          26          17  0.894953554437964     
           9           2
          26          18  0.894953554437964     
           1           0
          26          19  0.963866186290618     
           1           0
          26          20  0.963866186290618     
           2           1
          26          21  0.948418138043527     
           2           1
          26          22  0.948418138043527     
           3           1
          26          23  0.735965602316641     
           3           1
          26          24  0.735965602316641     
           4           1
          26          25   1.34188122694997     
           4           1
          26          26   1.34188122694997     
           5           2
          26          27  0.979521285065780     
           5           2
          26          28  0.979521285065780     
           6           2
          26          29  0.825471528524664     
           6           2
          26          30  0.825471528524664     
           7           2
          26          31   1.11957471067109     
           7           2
          26          32   1.11957471067109     
           8           2
          26          33   1.04440746597856     
           8           2
          26          34   1.04440746597856     
           9           2
          26          35  0.894953554437964     
           9           2
          26          36  0.894953554437964     
      27           1           0
          27           1  0.933959635416041     
           1           0
          27           2  0.933959635416041     
           2           1
          27           3   1.00756770074321     
           2           1
          27           4   1.00756770074321     
           3           1
          27           5  0.734767994443261     
           3           1
          27           6  0.734767994443261     
           4           1
          27           7   1.31084121554345     
           4           1
          27           8   1.31084121554345     
           5           2
          27           9  0.924343511507424     
           5           2
          27          10  0.924343511507424     
           6           2
          27          11  0.831007852760538     
           6           2
          27          12  0.831007852760538     
           7           2
          27          13   1.18642883579146     
           7           2
          27          14   1.18642883579146     
           8           2
          27          15   1.03403616910850     
           8           2
          27          16   1.03403616910850     
           9           2
          27          17  0.893593673255007     
           9           2
          27          18  0.893593673255007     
           1           0
          27          19  0.933959635416041     
           1           0
          27          20  0.933959635416041     
           2           1
          27          21   1.00756770074321     
           2           1
          27          22   1.00756770074321     
           3           1
          27          23  0.734767994443261     
           3           1
          27          24  0.734767994443261     
           4           1
          27          25   1.31084121554345     
           4           1
          27          26   1.31084121554345     
           5           2
          27          27  0.924343511507424     
           5           2
          27          28  0.924343511507424     
           6           2
          27          29  0.831007852760538     
           6           2
          27          30  0.831007852760538     
           7           2
          27          31   1.18642883579146     
           7           2
          27          32   1.18642883579146     
           8           2
          27          33   1.03403616910850     
           8           2
          27          34   1.03403616910850     
           9           2
          27          35  0.893593673255007     
           9           2
          27          36  0.893593673255007     
      28           1           0
          28           1  0.919072768837054     
           1           0
          28           2  0.919072768837054     
           2           1
          28           3   1.03697833540042     
           2           1
          28           4   1.03697833540042     
           3           1
          28           5  0.734151348202831     
           3           1
          28           6  0.734151348202831     
           4           1
          28           7   1.29536720949020     
           4           1
          28           8   1.29536720949020     
           5           2
          28           9  0.896971960037254     
           5           2
          28          10  0.896971960037254     
           6           2
          28          11  0.833769271349280     
           6           2
          28          12  0.833769271349280     
           7           2
          28          13   1.21980395473062     
           7           2
          28          14   1.21980395473062     
           8           2
          28          15   1.02893669681804     
           8           2
          28          16   1.02893669681804     
           9           2
          28          17  0.892632472602428     
           9           2
          28          18  0.892632472602428     
           1           0
          28          19  0.919072768837054     
           1           0
          28          20  0.919072768837054     
           2           1
          28          21   1.03697833540042     
           2           1
          28          22   1.03697833540042     
           3           1
          28          23  0.734151348202831     
           3           1
          28          24  0.734151348202831     
           4           1
          28          25   1.29536720949020     
           4           1
          28          26   1.29536720949020     
           5           2
          28          27  0.896971960037254     
           5           2
          28          28  0.896971960037254     
           6           2
          28          29  0.833769271349280     
           6           2
          28          30  0.833769271349280     
           7           2
          28          31   1.21980395473062     
           7           2
          28          32   1.21980395473062     
           8           2
          28          33   1.02893669681804     
           8           2
          28          34   1.02893669681804     
           9           2
          28          35  0.892632472602428     
           9           2
          28          36  0.892632472602428     
      29           1           0
          29           1  0.933959635416041     
           1           0
          29           2  0.933959635416041     
           2           1
          29           3   1.00756770074321     
           2           1
          29           4   1.00756770074321     
           3           1
          29           5  0.734767994443261     
           3           1
          29           6  0.734767994443261     
           4           1
          29           7   1.31084121554345     
           4           1
          29           8   1.31084121554345     
           5           2
          29           9  0.924343511507424     
           5           2
          29          10  0.924343511507424     
           6           2
[...]
           9           2
         482          36  0.811768739422207     
     483           1           0
         483           1   1.26790904221568     
           1           0
         483           2   1.26790904221568     
           2           1
         483           3   1.17276232806751     
           2           1
         483           4   1.17276232806751     
           3           1
         483           5  0.833484080966440     
           3           1
         483           6  0.833484080966440     
           4           1
         483           7  0.833484080966443     
           4           1
         483           8  0.833484080966443     
           5           2
         483           9   1.06131084742217     
           5           2
         483          10   1.06131084742217     
           6           2
         483          11  0.892295531483162     
           6           2
         483          12  0.892295531483162     
           7           2
         483          13  0.892295531483161     
           7           2
         483          14  0.892295531483161     
           8           2
         483          15   1.10914338108227     
           8           2
         483          16   1.10914338108227     
           9           2
         483          17  0.810995733834587     
           9           2
         483          18  0.810995733834587     
           1           0
         483          19   1.26790904221568     
           1           0
         483          20   1.26790904221568     
           2           1
         483          21   1.17276232806751     
           2           1
         483          22   1.17276232806751     
           3           1
         483          23  0.833484080966440     
           3           1
         483          24  0.833484080966440     
           4           1
         483          25  0.833484080966443     
           4           1
         483          26  0.833484080966443     
           5           2
         483          27   1.06131084742217     
           5           2
         483          28   1.06131084742217     
           6           2
         483          29  0.892295531483162     
           6           2
         483          30  0.892295531483162     
           7           2
         483          31  0.892295531483161     
           7           2
         483          32  0.892295531483161     
           8           2
         483          33   1.10914338108227     
           8           2
         483          34   1.10914338108227     
           9           2
         483          35  0.810995733834587     
           9           2
         483          36  0.810995733834587     
     484           1           0
         484           1   1.22788170567080     
           1           0
         484           2   1.22788170567080     
           2           1
         484           3   1.22830655695021     
           2           1
         484           4   1.22830655695021     
           3           1
         484           5  0.830160407071110     
           3           1
         484           6  0.830160407071110     
           4           1
         484           7  0.830160407071113     
           4           1
         484           8  0.830160407071113     
           5           2
         484           9   1.04044250610573     
           5           2
         484          10   1.04044250610573     
           6           2
         484          11  0.900392696199797     
           6           2
         484          12  0.900392696199797     
           7           2
         484          13  0.900392696199796     
           7           2
         484          14  0.900392696199796     
           8           2
         484          15   1.10701810649631     
           8           2
         484          16   1.10701810649631     
           9           2
         484          17  0.810551159462273     
           9           2
         484          18  0.810551159462273     
           1           0
         484          19   1.22788170567080     
           1           0
         484          20   1.22788170567080     
           2           1
         484          21   1.22830655695021     
           2           1
         484          22   1.22830655695021     
           3           1
         484          23  0.830160407071109     
           3           1
         484          24  0.830160407071109     
           4           1
         484          25  0.830160407071113     
           4           1
         484          26  0.830160407071113     
           5           2
         484          27   1.04044250610573     
           5           2
         484          28   1.04044250610573     
           6           2
         484          29  0.900392696199797     
           6           2
         484          30  0.900392696199797     
           7           2
         484          31  0.900392696199797     
           7           2
         484          32  0.900392696199797     
           8           2
         484          33   1.10701810649631     
           8           2
         484          34   1.10701810649631     
           9           2
         484          35  0.810551159462273     
           9           2
         484          36  0.810551159462273     
     485           1           0
         485           1   1.26790904221568     
           1           0
         485           2   1.26790904221568     
           2           1
         485           3   1.17276232806751     
           2           1
         485           4   1.17276232806751     
           3           1
         485           5  0.833484080966440     
           3           1
         485           6  0.833484080966440     
           4           1
         485           7  0.833484080966443     
           4           1
         485           8  0.833484080966443     
           5           2
         485           9   1.06131084742217     
           5           2
         485          10   1.06131084742217     
           6           2
         485          11  0.892295531483162     
           6           2
         485          12  0.892295531483162     
           7           2
         485          13  0.892295531483161     
           7           2
         485          14  0.892295531483161     
           8           2
         485          15   1.10914338108227     
           8           2
         485          16   1.10914338108227     
           9           2
         485          17  0.810995733834587     
           9           2
         485          18  0.810995733834587     
           1           0
         485          19   1.26790904221568     
           1           0
         485          20   1.26790904221568     
           2           1
         485          21   1.17276232806751     
           2           1
         485          22   1.17276232806751     
           3           1
         485          23  0.833484080966440     
           3           1
         485          24  0.833484080966440     
           4           1
         485          25  0.833484080966443     
           4           1
         485          26  0.833484080966443     
           5           2
         485          27   1.06131084742217     
           5           2
         485          28   1.06131084742217     
           6           2
         485          29  0.892295531483161     
           6           2
         485          30  0.892295531483161     
           7           2
         485          31  0.892295531483161     
           7           2
         485          32  0.892295531483161     
           8           2
         485          33   1.10914338108227     
           8           2
         485          34   1.10914338108227     
           9           2
         485          35  0.810995733834587     
           9           2
         485          36  0.810995733834587     
     486           1           0
         486           1   1.34888430940577     
           1           0
         486           2   1.34888430940577     
           2           1
         486           3   1.05994212748735     
           2           1
         486           4   1.05994212748735     
           3           1
         486           5  0.840177891260670     
           3           1
         486           6  0.840177891260670     
           4           1
         486           7  0.840177891260673     
           4           1
         486           8  0.840177891260673     
           5           2
         486           9   1.10515518544826     
           5           2
         486          10   1.10515518544826     
           6           2
         486          11  0.876272845181567     
           6           2
         486          12  0.876272845181567     
           7           2
         486          13  0.876272845181567     
           7           2
         486          14  0.876272845181567     
           8           2
         486          15   1.11331461927391     
           8           2
         486          16   1.11331461927391     
           9           2
         486          17  0.811768739422207     
           9           2
         486          18  0.811768739422207     
           1           0
         486          19   1.34888430940577     
           1           0
         486          20   1.34888430940577     
           2           1
         486          21   1.05994212748735     
           2           1
         486          22   1.05994212748735     
           3           1
         486          23  0.840177891260670     
           3           1
         486          24  0.840177891260670     
           4           1
         486          25  0.840177891260673     
           4           1
         486          26  0.840177891260673     
           5           2
         486          27   1.10515518544826     
           5           2
         486          28   1.10515518544826     
           6           2
         486          29  0.876272845181567     
           6           2
         486          30  0.876272845181567     
           7           2
         486          31  0.876272845181567     
           7           2
         486          32  0.876272845181567     
           8           2
         486          33   1.11331461927391     
           8           2
         486          34   1.11331461927391     
           9           2
         486          35  0.811768739422207     
           9           2
         486          36  0.811768739422207     


  AMN calculated
 
  ---------------
  *** Compute  M 
  ---------------
 
  MMN: iknum =      486
       1       2       3       4       5       6       7       8       9      10
      11      12      13      14      15      16      17      18      19      20
      21      22      23      24      25      26      27      28      29      30
      31      32      33      34      35      36      37      38      39      40
      41      42      43      44      45      46      47      48      49      50
      51      52      53      54      55      56      57      58      59      60
      61      62      63      64      65      66      67      68      69      70
      71      72      73      74      75      76      77      78      79      80
      81      82      83      84      85      86      87      88      89      90
      91      92      93      94      95      96      97      98      99     100
     101     102     103     104     105     106     107     108     109     110
     111     112     113     114     115     116     117     118     119     120
     121     122     123     124     125     126     127     128     129     130
     131     132     133     134     135     136     137     138     139     140
     141     142     143     144     145     146     147     148     149     150
     151     152     153     154     155     156     157     158     159     160
     161     162     163     164     165     166     167     168     169     170
     171     172     173     174     175     176     177     178     179     180
     181     182     183     184     185     186     187     188     189     190
     191     192     193     194     195     196     197     198     199     200
     201     202     203     204     205     206     207     208     209     210
     211     212     213     214     215     216     217     218     219     220
     221     222     223     224     225     226     227     228     229     230
     231     232     233     234     235     236     237     238     239     240
     241     242     243     244     245     246     247     248     249     250
     251     252     253     254     255     256     257     258     259     260
     261     262     263     264     265     266     267     268     269     270
     271     272     273     274     275     276     277     278     279     280
     281     282     283     284     285     286     287     288     289     290
     291     292     293     294     295     296     297     298     299     300
     301     302     303     304     305     306     307     308     309     310
     311     312     313     314     315     316     317     318     319     320
     321     322     323     324     325     326     327     328     329     330
     331     332     333     334     335     336     337     338     339     340
     341     342     343     344     345     346     347     348     349     350
     351     352     353     354     355     356     357     358     359     360
     361     362     363     364     365     366     367     368     369     370
     371     372     373     374     375     376     377     378     379     380
     381     382     383     384     385     386     387     388     389     390
     391     392     393     394     395     396     397     398     399     400
     401     402     403     404     405     406     407     408     409     410
     411     412     413     414     415     416     417     418     419     420
     421     422     423     424     425     426     427     428     429     430
     431     432     433     434     435     436     437     438     439     440
     441     442     443     444     445     446     447     448     449     450
     451     452     453     454     455     456     457     458     459     460
     461     462     463     464     465     466     467     468     469     470
     471     472     473     474     475     476     477     478     479     480
     481     482     483     484     485     486

  MMN calculated
 
  --------------------------------
  *** Spin matrix is not computed 
  --------------------------------
 
  -----------------------------------
  *** Orbital terms are not computed 
  -----------------------------------
 
  -----------------------------------
  *** SHC terms are not computed 
  -----------------------------------
 
  ----------------
  *** Write bands 
  ----------------
 
 
  --------------------
  *** Write plot info 
  --------------------
 
 UNK: iknum =      486
       1       2       3       4       5       6       7       8       9      10
      11      12      13      14      15      16      17      18      19      20
      21      22      23      24      25      26      27      28      29      30
      31      32      33      34      35      36      37      38      39      40
      41      42      43      44      45      46      47      48      49      50
      51      52      53      54      55      56      57      58      59      60
      61      62      63      64      65      66      67      68      69      70
      71      72      73      74      75      76      77      78      79      80
      81      82      83      84      85      86      87      88      89      90
      91      92      93      94      95      96      97      98      99     100
     101     102     103     104     105     106     107     108     109     110
     111     112     113     114     115     116     117     118     119     120
     121     122     123     124     125     126     127     128     129     130
     131     132     133     134     135     136     137     138     139     140
     141     142     143     144     145     146     147     148     149     150
     151     152     153     154     155     156     157     158     159     160
     161     162     163     164     165     166     167     168     169     170
     171     172     173     174     175     176     177     178     179     180
     181     182     183     184     185     186     187     188     189     190
     191     192     193     194     195     196     197     198     199     200
     201     202     203     204     205     206     207     208     209     210
     211     212     213     214     215     216     217     218     219     220
     221     222     223     224     225     226     227     228     229     230
     231     232     233     234     235     236     237     238     239     240
     241     242     243     244     245     246     247     248     249     250
     251     252     253     254     255     256     257     258     259     260
     261     262     263     264     265     266     267     268     269     270
     271     272     273     274     275     276     277     278     279     280
     281     282     283     284     285     286     287     288     289     290
     291     292     293     294     295     296     297     298     299     300
     301     302     303     304     305     306     307     308     309     310
     311     312     313     314     315     316     317     318     319     320
     321     322     323     324     325     326     327     328     329     330
     331     332     333     334     335     336     337     338     339     340
     341     342     343     344     345     346     347     348     349     350
     351     352     353     354     355     356     357     358     359     360
     361     362     363     364     365     366     367     368     369     370
     371     372     373     374     375     376     377     378     379     380
     381     382     383     384     385     386     387     388     389     390
     391     392     393     394     395     396     397     398     399     400
     401     402     403     404     405     406     407     408     409     410
     411     412     413     414     415     416     417     418     419     420
     421     422     423     424     425     426     427     428     429     430
     431     432     433     434     435     436     437     438     439     440
     441     442     443     444     445     446     447     448     449     450
     451     452     453     454     455     456     457     458     459     460
     461     462     463     464     465     466     467     468     469     470
     471     472     473     474     475     476     477     478     479     480
     481     482     483     484     485     486

  UNK written
 
  -----------------------------
  *** Parity info is not printed 
  -----------------------------
 
  ------------
  *** Stop pp 
  ------------
 
 
     init_pw2wan  :    224.26s CPU    266.62s WALL (       1 calls)
     compute_amn  :    683.02s CPU    710.26s WALL (       1 calls)
     compute_mmn  :    720.85s CPU    744.90s WALL (       1 calls)
     write_unk    :    127.28s CPU    517.68s WALL (       1 calls)
 
     PW2WANNIER   :  29m15.66s CPU  37m19.76s WALL

 
   This run was terminated on:  14:10:53  13May2024            

=------------------------------------------------------------------------------=
   JOB DONE.
=------------------------------------------------------------------------------=
 
