       #
       # Generated by the Wannier90 code http://www.wannier.org
       # On 13May2024 at 14:14:03 
       #
CRYSTAL
PRIMVEC
   2.7281430   0.0000000   0.0000000
   0.0000000   2.7281430   0.0000000
   0.0000000   0.0000000   3.7789840
CONVVEC
   2.7281430   0.0000000   0.0000000
   0.0000000   2.7281430   0.0000000
   0.0000000   0.0000000   3.7789840
PRIMCOORD
     2  1
Fe      0.0000000   0.0000000   0.0000000
Pt      1.3640715   1.3640715   1.8894920


BEGIN_BLOCK_DATAGRID_3D
3D_field
BEGIN_DATAGRID_3D_UNKNOWN
    54    54    80
   -2.829185   -2.829185   -3.873459
   5.3552437   0.0000000   0.0000000
   0.0000000   5.3552437   0.0000000
   0.0000000   0.0000000   7.4634934
  0.28503E-01  0.19831E-01  0.83648E-02  0.24059E-02  0.54884E-02  0.49586E-02
  0.29238E-02  0.16132E-02  0.14082E-02  0.14853E-02  0.12613E-02  0.76613E-03
  0.80650E-03  0.16415E-02  0.26969E-02  0.37614E-02  0.46316E-02  0.51387E-02
  0.51563E-02  0.45305E-02  0.31253E-02  0.11748E-02  0.17179E-02  0.33850E-02
  0.39005E-02  0.33645E-02  0.31260E-02  0.39931E-02  0.45921E-02  0.39958E-02
  0.24682E-02  0.20349E-02  0.30813E-02  0.31205E-02  0.17222E-02  0.68508E-03
  0.27367E-02  0.41947E-02  0.48711E-02  0.49082E-02  0.44570E-02  0.36354E-02
  0.26076E-02  0.15809E-02  0.78441E-03  0.79844E-03  0.12937E-02  0.15088E-02
  0.14151E-02  0.15959E-02  0.28953E-02  0.49397E-02  0.55207E-02  0.25428E-02
  0.19717E-01  0.84016E-02  0.48555E-02  0.12336E-01  0.13251E-01  0.92931E-02
  0.42529E-02  0.88206E-03  0.88150E-03  0.13822E-02  0.18660E-02  0.25855E-02
  0.34433E-02  0.43629E-02  0.53333E-02  0.62636E-02  0.69736E-02  0.73023E-02
  0.71267E-02  0.62859E-02  0.46159E-02  0.22046E-02  0.12132E-02  0.36053E-02
  0.54078E-02  0.62761E-02  0.62914E-02  0.56133E-02  0.45875E-02  0.38942E-02
  0.40129E-02  0.44578E-02  0.43903E-02  0.32569E-02  0.10848E-02  0.17817E-02
  0.42402E-02  0.59591E-02  0.68523E-02  0.70834E-02  0.68094E-02  0.61438E-02
  0.52414E-02  0.42845E-02  0.33702E-02  0.25125E-02  0.17885E-02  0.13028E-02
  0.80405E-03  0.84875E-03  0.42122E-02  0.92069E-02  0.13133E-01  0.12241E-01
  0.81387E-02  0.49158E-02  0.15779E-01  0.20802E-01  0.18486E-01  0.11628E-01
  0.44451E-02  0.49683E-03  0.27579E-02  0.37678E-02  0.45112E-02  0.53216E-02
  0.61514E-02  0.69751E-02  0.78139E-02  0.85924E-02  0.91422E-02  0.93146E-02
  0.89976E-02  0.80380E-02  0.62671E-02  0.37000E-02  0.96834E-03  0.28527E-02
  0.56708E-02  0.80462E-02  0.97537E-02  0.10531E-01  0.10286E-01  0.92777E-02
  0.79328E-02  0.64778E-02  0.47750E-02  0.25524E-02  0.52880E-03  0.33226E-02
  0.59135E-02  0.77347E-02  0.87508E-02  0.91267E-02  0.90102E-02  0.85032E-02
  0.77491E-02  0.69192E-02  0.60964E-02  0.52644E-02  0.44498E-02  0.37036E-02
  0.26997E-02  0.43833E-03  0.44059E-02  0.11498E-01  0.18251E-01  0.20494E-01
  0.24254E-02  0.12483E-01  0.20873E-01  0.22972E-01  0.18456E-01  0.10413E-01
  0.27483E-02  0.23476E-02  0.49166E-02  0.61631E-02  0.70426E-02  0.78603E-02
  0.86097E-02  0.93128E-02  0.10010E-01  0.10634E-01  0.11029E-01  0.11066E-01
  0.10650E-01  0.96463E-02  0.79039E-02  0.54178E-02  0.24542E-02  0.12246E-02
  0.42481E-02  0.73193E-02  0.99629E-02  0.11639E-01  0.11908E-01  0.10779E-01
  0.87083E-02  0.62514E-02  0.36813E-02  0.10284E-02  0.21498E-02  0.50676E-02
  0.75817E-02  0.93798E-02  0.10446E-01  0.10925E-01  0.10946E-01  0.10592E-01
  0.99898E-02  0.92957E-02  0.85863E-02  0.78271E-02  0.69979E-02  0.61071E-02
  0.48573E-02  0.23081E-02  0.27405E-02  0.10296E-01  0.18197E-01  0.22581E-01
  0.56510E-02  0.13398E-01  0.18575E-01  0.18488E-01  0.13423E-01  0.60937E-02
  0.49944E-03  0.48194E-02  0.71361E-02  0.84020E-02  0.93117E-02  0.10073E-01
  0.10710E-01  0.11283E-01  0.11837E-01  0.12302E-01  0.12541E-01  0.12449E-01
  0.11950E-01  0.10930E-01  0.92702E-02  0.69843E-02  0.42823E-02  0.15086E-02
  0.17550E-02  0.45368E-02  0.70924E-02  0.88461E-02  0.93033E-02  0.83691E-02
  0.64240E-02  0.40293E-02  0.15843E-02  0.13529E-02  0.39833E-02  0.66647E-02
  0.89921E-02  0.10713E-01  0.11802E-01  0.12371E-01  0.12522E-01  0.12322E-01
  0.11873E-01  0.11316E-01  0.10728E-01  0.10071E-01  0.92872E-02  0.83553E-02
  0.70726E-02  0.47573E-02  0.52736E-03  0.60462E-02  0.13241E-01  0.18165E-01
  0.50693E-02  0.93893E-02  0.11688E-01  0.10436E-01  0.60959E-02  0.60407E-03
  0.41718E-02  0.73536E-02  0.92221E-02  0.10391E-01  0.11246E-01  0.11899E-01
  0.12404E-01  0.12844E-01  0.13252E-01  0.13551E-01  0.13625E-01  0.13395E-01
  0.12802E-01  0.11751E-01  0.10160E-01  0.80683E-02  0.56896E-02  0.32945E-02
  0.11156E-02  0.13708E-02  0.31743E-02  0.44711E-02  0.48784E-02  0.43046E-02
  0.29894E-02  0.13624E-02  0.11083E-02  0.30726E-02  0.54032E-02  0.77972E-02
  0.99406E-02  0.11599E-01  0.12724E-01  0.13390E-01  0.13679E-01  0.13640E-01
  0.13352E-01  0.12935E-01  0.12470E-01  0.11932E-01  0.11244E-01  0.10356E-01
  0.91566E-02  0.72690E-02  0.40960E-02  0.67689E-03  0.60440E-02  0.10273E-01
  0.29681E-02  0.42874E-02  0.44606E-02  0.27478E-02  0.55025E-03  0.41884E-02
  0.73166E-02  0.95401E-02  0.11026E-01  0.12060E-01  0.12802E-01  0.13317E-01
  0.13686E-01  0.13992E-01  0.14244E-01  0.14365E-01  0.14266E-01  0.13888E-01
  0.13183E-01  0.12075E-01  0.10508E-01  0.85391E-02  0.63795E-02  0.43017E-02
  0.24955E-02  0.10294E-02  0.43082E-03  0.10905E-02  0.13680E-02  0.11368E-02
  0.63273E-03  0.10309E-02  0.23327E-02  0.40696E-02  0.61425E-02  0.83367E-02
  0.10362E-01  0.12000E-01  0.13186E-01  0.13965E-01  0.14399E-01  0.14529E-01
  0.14413E-01  0.14144E-01  0.13803E-01  0.13389E-01  0.12826E-01  0.12039E-01
  0.10962E-01  0.94406E-02  0.71980E-02  0.40790E-02  0.47410E-03  0.27410E-02
  0.16024E-02  0.86937E-03  0.54389E-03  0.23945E-02  0.48651E-02  0.73910E-02
  0.95616E-02  0.11240E-01  0.12480E-01  0.13367E-01  0.13961E-01  0.14332E-01
  0.14571E-01  0.14740E-01  0.14825E-01  0.14763E-01  0.14492E-01  0.13966E-01
  0.13142E-01  0.11961E-01  0.10387E-01  0.84790E-02  0.64170E-02  0.44509E-02
  0.27986E-02  0.15658E-02  0.75279E-03  0.35528E-03  0.32548E-03  0.41115E-03
  0.73525E-03  0.14610E-02  0.26405E-02  0.42768E-02  0.62583E-02  0.83594E-02
  0.10325E-01  0.11972E-01  0.13234E-01  0.14129E-01  0.14705E-01  0.15001E-01
  0.15062E-01  0.14953E-01  0.14740E-01  0.14444E-01  0.14012E-01  0.13361E-01
  0.12421E-01  0.11133E-01  0.94188E-02  0.72309E-02  0.47104E-02  0.22594E-02
  0.13637E-02  0.89925E-03  0.28115E-02  0.49809E-02  0.72021E-02  0.92815E-02
  0.11071E-01  0.12505E-01  0.13573E-01  0.14297E-01  0.14737E-01  0.14979E-01
  0.15098E-01  0.15123E-01  0.15035E-01  0.14798E-01  0.14372E-01  0.13717E-01
  0.12785E-01  0.11533E-01  0.99495E-02  0.80855E-02  0.60717E-02  0.41048E-02
  0.24022E-02  0.11801E-02  0.76423E-03  0.96757E-03  0.11027E-02  0.10292E-02
  0.86201E-03  0.11913E-02  0.23414E-02  0.40237E-02  0.60033E-02  0.80555E-02
  0.99792E-02  0.11637E-01  0.12966E-01  0.13965E-01  0.14664E-01  0.15107E-01
  0.15337E-01  0.15392E-01  0.15316E-01  0.15130E-01  0.14817E-01  0.14307E-01
  0.13519E-01  0.12395E-01  0.10916E-01  0.90964E-02  0.70054E-02  0.47913E-02
  0.14349E-02  0.14194E-02  0.38349E-02  0.62429E-02  0.84863E-02  0.10471E-01
  0.12130E-01  0.13419E-01  0.14325E-01  0.14889E-01  0.15194E-01  0.15323E-01
  0.15322E-01  0.15198E-01  0.14947E-01  0.14562E-01  0.14019E-01  0.13268E-01
  0.12259E-01  0.10963E-01  0.93890E-02  0.75845E-02  0.56374E-02  0.36855E-02
  0.19144E-02  0.70268E-03  0.10836E-02  0.16956E-02  0.19369E-02  0.17765E-02
  0.12738E-02  0.96266E-03  0.19825E-02  0.37006E-02  0.56583E-02  0.76442E-02
  0.95101E-02  0.11157E-01  0.12525E-01  0.13593E-01  0.14381E-01  0.14935E-01
  0.15305E-01  0.15517E-01  0.15582E-01  0.15511E-01  0.15302E-01  0.14917E-01
  0.14279E-01  0.13309E-01  0.11969E-01  0.10274E-01  0.82697E-02  0.60255E-02
  0.12226E-02  0.19208E-02  0.45888E-02  0.71349E-02  0.94121E-02  0.11347E-01
  0.12896E-01  0.14040E-01  0.14795E-01  0.15225E-01  0.15418E-01  0.15437E-01
  0.15307E-01  0.15039E-01  0.14655E-01  0.14169E-01  0.13558E-01  0.12764E-01
  0.11730E-01  0.10440E-01  0.89144E-02  0.71980E-02  0.53562E-02  0.34866E-02
  0.17310E-02  0.49482E-03  0.12178E-02  0.19555E-02  0.22373E-02  0.20356E-02
  0.14195E-02  0.91656E-03  0.18903E-02  0.35797E-02  0.54564E-02  0.73399E-02
  0.91177E-02  0.10713E-01  0.12068E-01  0.13153E-01  0.13978E-01  0.14594E-01
  0.15060E-01  0.15399E-01  0.15602E-01  0.15654E-01  0.15550E-01  0.15271E-01
  0.14759E-01  0.13933E-01  0.12732E-01  0.11143E-01  0.91854E-02  0.69037E-02
  0.77175E-03  0.26500E-02  0.54049E-02  0.79608E-02  0.10186E-01  0.12017E-01
  0.13433E-01  0.14437E-01  0.15067E-01  0.15386E-01  0.15470E-01  0.15368E-01
  0.15109E-01  0.14724E-01  0.14257E-01  0.13728E-01  0.13107E-01  0.12331E-01
  0.11346E-01  0.10133E-01  0.87116E-02  0.71201E-02  0.54149E-02  0.36774E-02
  0.20198E-02  0.64317E-03  0.81942E-03  0.15337E-02  0.18156E-02  0.16199E-02
  0.10705E-02  0.10072E-02  0.21949E-02  0.38186E-02  0.55751E-02  0.73264E-02
  0.89786E-02  0.10464E-01  0.11736E-01  0.12766E-01  0.13567E-01  0.14189E-01
  0.14694E-01  0.15111E-01  0.15427E-01  0.15606E-01  0.15621E-01  0.15448E-01
  0.15043E-01  0.14339E-01  0.13273E-01  0.11813E-01  0.99567E-02  0.77249E-02
  0.87533E-03  0.35067E-02  0.62339E-02  0.87126E-02  0.10830E-01  0.12534E-01
  0.13819E-01  0.14700E-01  0.15213E-01  0.15416E-01  0.15374E-01  0.15144E-01
  0.14776E-01  0.14324E-01  0.13837E-01  0.13326E-01  0.12755E-01  0.12065E-01
  0.11203E-01  0.10144E-01  0.88896E-02  0.74666E-02  0.59258E-02  0.43440E-02
  0.28221E-02  0.14910E-02  0.61258E-03  0.70758E-03  0.92383E-03  0.84618E-03
  0.88429E-03  0.16801E-02  0.29759E-02  0.45058E-02  0.61217E-02  0.77137E-02
  0.91967E-02  0.10512E-01  0.11625E-01  0.12527E-01  0.13238E-01  0.13806E-01
  0.14289E-01  0.14725E-01  0.15107E-01  0.15393E-01  0.15536E-01  0.15489E-01
  0.15201E-01  0.14612E-01  0.13669E-01  0.12339E-01  0.10607E-01  0.84819E-02
  0.16917E-02  0.44157E-02  0.70496E-02  0.94111E-02  0.11403E-01  0.12980E-01
  0.14136E-01  0.14885E-01  0.15260E-01  0.15319E-01  0.15137E-01  0.14793E-01
  0.14359E-01  0.13901E-01  0.13457E-01  0.13025E-01  0.12566E-01  0.12022E-01
  0.11344E-01  0.10495E-01  0.94580E-02  0.82435E-02  0.68947E-02  0.54837E-02
  0.41057E-02  0.28758E-02  0.19227E-02  0.13608E-02  0.12147E-02  0.14319E-02
  0.20271E-02  0.29938E-02  0.42420E-02  0.56515E-02  0.71069E-02  0.85099E-02
  0.97835E-02  0.10879E-01  0.11778E-01  0.12491E-01  0.13051E-01  0.13505E-01
  0.13907E-01  0.14301E-01  0.14691E-01  0.15045E-01  0.15303E-01  0.15398E-01
  0.15256E-01  0.14809E-01  0.14000E-01  0.12799E-01  0.11195E-01  0.91962E-02
  0.27162E-02  0.53662E-02  0.78716E-02  0.10095E-01  0.11948E-01  0.13383E-01
  0.14390E-01  0.14978E-01  0.15187E-01  0.15088E-01  0.14779E-01  0.14355E-01
  0.13905E-01  0.13491E-01  0.13142E-01  0.12847E-01  0.12556E-01  0.12212E-01
  0.11759E-01  0.11150E-01  0.10355E-01  0.93702E-02  0.82296E-02  0.69969E-02
  0.57632E-02  0.46420E-02  0.37530E-02  0.31936E-02  0.30159E-02  0.32309E-02
  0.38219E-02  0.47392E-02  0.58923E-02  0.71655E-02  0.84460E-02  0.96402E-02
  0.10681E-01  0.11531E-01  0.12186E-01  0.12670E-01  0.13026E-01  0.13309E-01
  0.13575E-01  0.13875E-01  0.14224E-01  0.14598E-01  0.14939E-01  0.15166E-01
  0.15187E-01  0.14910E-01  0.14267E-01  0.13220E-01  0.11762E-01  0.99038E-02
  0.37448E-02  0.62670E-02  0.86234E-02  0.10695E-01  0.12393E-01  0.13668E-01
  0.14503E-01  0.14915E-01  0.14955E-01  0.14716E-01  0.14311E-01  0.13849E-01
  0.13421E-01  0.13088E-01  0.12877E-01  0.12765E-01  0.12693E-01  0.12589E-01
  0.12387E-01  0.12030E-01  0.11480E-01  0.10723E-01  0.97783E-02  0.87053E-02
  0.75967E-02  0.65707E-02  0.57485E-02  0.52257E-02  0.50565E-02  0.52564E-02
  0.58090E-02  0.66617E-02  0.77220E-02  0.88708E-02  0.99899E-02  0.10985E-01
  0.11794E-01  0.12393E-01  0.12790E-01  0.13019E-01  0.13133E-01  0.13195E-01
  0.13279E-01  0.13443E-01  0.13714E-01  0.14070E-01  0.14455E-01  0.14784E-01
  0.14952E-01  0.14851E-01  0.14391E-01  0.13522E-01  0.12230E-01  0.10530E-01
  0.45748E-02  0.69394E-02  0.91372E-02  0.11056E-01  0.12602E-01  0.13717E-01
  0.14385E-01  0.14631E-01  0.14525E-01  0.14176E-01  0.13710E-01  0.13243E-01
  0.12869E-01  0.12651E-01  0.12612E-01  0.12719E-01  0.12899E-01  0.13061E-01
  0.13124E-01  0.13024E-01  0.12709E-01  0.12149E-01  0.11357E-01  0.10392E-01
  0.93576E-02  0.83820E-02  0.75904E-02  0.70816E-02  0.69149E-02  0.71095E-02
  0.76465E-02  0.84674E-02  0.94756E-02  0.10547E-01  0.11554E-01  0.12392E-01
  0.12998E-01  0.13356E-01  0.13491E-01  0.13451E-01  0.13297E-01  0.13108E-01
  0.12973E-01  0.12968E-01  0.13127E-01  0.13434E-01  0.13829E-01  0.14226E-01
  0.14512E-01  0.14566E-01  0.14280E-01  0.13586E-01  0.12460E-01  0.10918E-01
  0.50407E-02  0.72271E-02  0.92687E-02  0.11053E-01  0.12472E-01  0.13453E-01
  0.13979E-01  0.14085E-01  0.13856E-01  0.13420E-01  0.12916E-01  0.12474E-01
  0.12189E-01  0.12122E-01  0.12284E-01  0.12634E-01  0.13081E-01  0.13519E-01
  0.13851E-01  0.13995E-01  0.13884E-01  0.13472E-01  0.12766E-01  0.11837E-01
  0.10805E-01  0.98093E-02  0.89846E-02  0.84430E-02  0.82613E-02  0.84672E-02
  0.90332E-02  0.98833E-02  0.10907E-01  0.11971E-01  0.12937E-01  0.13683E-01
  0.14136E-01  0.14287E-01  0.14174E-01  0.13863E-01  0.13432E-01  0.12976E-01
  0.12600E-01  0.12395E-01  0.12406E-01  0.12626E-01  0.13003E-01  0.13444E-01
  0.13826E-01  0.14011E-01  0.13875E-01  0.13332E-01  0.12348E-01  0.10938E-01
  0.50205E-02  0.70129E-02  0.89119E-02  0.10597E-01  0.11932E-01  0.12820E-01
  0.13238E-01  0.13231E-01  0.12902E-01  0.12396E-01  0.11875E-01  0.11486E-01
  0.11328E-01  0.11448E-01  0.11838E-01  0.12441E-01  0.13156E-01  0.13864E-01
  0.14447E-01  0.14800E-01  0.14836E-01  0.14501E-01  0.13803E-01  0.12824E-01
  0.11700E-01  0.10585E-01  0.96359E-02  0.89965E-02  0.87756E-02  0.90147E-02
  0.96722E-02  0.10640E-01  0.11776E-01  0.12925E-01  0.13934E-01  0.14667E-01
  0.15041E-01  0.15043E-01  0.14722E-01  0.14160E-01  0.13460E-01  0.12737E-01
  0.12109E-01  0.11677E-01  0.11502E-01  0.11598E-01  0.11926E-01  0.12390E-01
  0.12850E-01  0.13145E-01  0.13131E-01  0.12705E-01  0.11821E-01  0.10500E-01
  0.43612E-02  0.61375E-02  0.79162E-02  0.95553E-02  0.10873E-01  0.11731E-01
  0.12094E-01  0.12017E-01  0.11623E-01  0.11079E-01  0.10570E-01  0.10263E-01
  0.10262E-01  0.10594E-01  0.11226E-01  0.12085E-01  0.13061E-01  0.14017E-01
  0.14810E-01  0.15310E-01  0.15415E-01  0.15067E-01  0.14273E-01  0.13117E-01
  0.11749E-01  0.10358E-01  0.91503E-02  0.83266E-02  0.80365E-02  0.83358E-02
  0.91686E-02  0.10386E-01  0.11789E-01  0.13173E-01  0.14351E-01  0.15177E-01
  0.15563E-01  0.15498E-01  0.15034E-01  0.14266E-01  0.13320E-01  0.12339E-01
  0.11456E-01  0.10782E-01  0.10396E-01  0.10337E-01  0.10584E-01  0.11041E-01
  0.11547E-01  0.11916E-01  0.11982E-01  0.11619E-01  0.10771E-01  0.94726E-02
  0.29211E-02  0.44358E-02  0.61137E-02  0.77795E-02  0.91785E-02  0.10105E-01
  0.10492E-01  0.10412E-01  0.10012E-01  0.94829E-02  0.90269E-02  0.88268E-02
  0.89935E-02  0.95430E-02  0.10419E-01  0.11527E-01  0.12742E-01  0.13907E-01
  0.14852E-01  0.15423E-01  0.15506E-01  0.15031E-01  0.13986E-01  0.12452E-01
  0.10613E-01  0.87347E-02  0.71194E-02  0.60364E-02  0.56560E-02  0.60309E-02
  0.71104E-02  0.87252E-02  0.10607E-01  0.12454E-01  0.14005E-01  0.15077E-01
  0.15592E-01  0.15554E-01  0.15026E-01  0.14114E-01  0.12965E-01  0.11748E-01
  0.10618E-01  0.97007E-02  0.90952E-02  0.88654E-02  0.90064E-02  0.94165E-02
  0.99162E-02  0.10300E-01  0.10378E-01  0.99966E-02  0.90857E-02  0.77092E-02
  0.88525E-03  0.19846E-02  0.35250E-02  0.52725E-02  0.68666E-02  0.79839E-02
  0.84947E-02  0.84778E-02  0.81259E-02  0.76596E-02  0.72942E-02  0.72187E-02
  0.75514E-02  0.83074E-02  0.94147E-02  0.10753E-01  0.12172E-01  0.13491E-01
  0.14520E-01  0.15084E-01  0.15042E-01  0.14288E-01  0.12783E-01  0.10625E-01
  0.80873E-02  0.55856E-02  0.35898E-02  0.24748E-02  0.21746E-02  0.24338E-02
  0.35265E-02  0.55157E-02  0.80178E-02  0.10562E-01  0.12736E-01  0.14269E-01
  0.15066E-01  0.15159E-01  0.14649E-01  0.13664E-01  0.12370E-01  0.10955E-01
  0.95968E-02  0.84475E-02  0.76308E-02  0.72293E-02  0.72443E-02  0.75690E-02
  0.80147E-02  0.83607E-02  0.83820E-02  0.78836E-02  0.67859E-02  0.52186E-02
  0.16747E-02  0.10977E-02  0.73677E-03  0.23193E-02  0.41661E-02  0.55904E-02
  0.63134E-02  0.63962E-02  0.60983E-02  0.57035E-02  0.54443E-02  0.55006E-02
  0.59895E-02  0.69318E-02  0.82467E-02  0.97849E-02  0.11362E-01  0.12776E-01
  0.13821E-01  0.14298E-01  0.14011E-01  0.12801E-01  0.10622E-01  0.76617E-02
  0.43984E-02  0.18494E-02  0.24601E-02  0.38575E-02  0.43689E-02  0.38301E-02
  0.23727E-02  0.16083E-02  0.42201E-02  0.75132E-02  0.10501E-01  0.12718E-01
  0.13979E-01  0.14327E-01  0.13916E-01  0.12927E-01  0.11549E-01  0.99834E-02
  0.84293E-02  0.70708E-02  0.60594E-02  0.54906E-02  0.53686E-02  0.55917E-02
  0.59763E-02  0.62796E-02  0.62104E-02  0.55057E-02  0.41047E-02  0.22948E-02
  0.32811E-02  0.34701E-02  0.27232E-02  0.11249E-02  0.14533E-02  0.32172E-02
  0.42284E-02  0.44183E-02  0.41301E-02  0.37623E-02  0.35868E-02  0.37621E-02
  0.43879E-02  0.54890E-02  0.69799E-02  0.86816E-02  0.10373E-01  0.11832E-01
  0.12838E-01  0.13147E-01  0.12493E-01  0.10666E-01  0.76920E-02  0.40007E-02
  0.16002E-02  0.42640E-02  0.68365E-02  0.83895E-02  0.88736E-02  0.83308E-02
  0.67628E-02  0.41823E-02  0.11870E-02  0.37009E-02  0.74822E-02  0.10521E-01
  0.12414E-01  0.13143E-01  0.12911E-01  0.11975E-01  0.10565E-01  0.88940E-02
  0.71821E-02  0.56464E-02  0.44630E-02  0.37352E-02  0.34793E-02  0.36225E-02
  0.39976E-02  0.43105E-02  0.41457E-02  0.31535E-02  0.14121E-02  0.11366E-02
  0.36981E-02  0.50603E-02  0.52827E-02  0.39423E-02  0.16098E-02  0.11272E-02
  0.24447E-02  0.27650E-02  0.24466E-02  0.20505E-02  0.19031E-02  0.21363E-02
  0.28501E-02  0.40734E-02  0.57058E-02  0.75374E-02  0.93111E-02  0.10781E-01
  0.11705E-01  0.11781E-01  0.10668E-01  0.81583E-02  0.44820E-02  0.16719E-02
  0.49364E-02  0.83232E-02  0.10640E-01  0.11836E-01  0.12091E-01  0.11594E-01
  0.10344E-01  0.81340E-02  0.48287E-02  0.10838E-02  0.41313E-02  0.79455E-02
  0.10551E-01  0.11756E-01  0.11770E-01  0.10930E-01  0.95213E-02  0.77799E-02
  0.59479E-02  0.42730E-02  0.29491E-02  0.20817E-02  0.17169E-02  0.18414E-02
  0.22950E-02  0.26758E-02  0.23859E-02  0.10966E-02  0.17317E-02  0.40069E-02
  0.32857E-02  0.56646E-02  0.72641E-02  0.66273E-02  0.40945E-02  0.12174E-02
  0.10487E-02  0.15483E-02  0.12797E-02  0.10242E-02  0.92896E-03  0.92187E-03
  0.15079E-02  0.27945E-02  0.45375E-02  0.64721E-02  0.83045E-02  0.97639E-02
  0.10578E-01  0.10389E-01  0.88034E-02  0.56961E-02  0.20441E-02  0.42937E-02
  0.83479E-02  0.11393E-01  0.13173E-01  0.13799E-01  0.13620E-01  0.13077E-01
  0.12275E-01  0.10795E-01  0.81087E-02  0.41518E-02  0.13522E-02  0.54015E-02
  0.86559E-02  0.10354E-01  0.10647E-01  0.99281E-02  0.85434E-02  0.67576E-02
  0.48394E-02  0.30698E-02  0.16649E-02  0.76041E-03  0.47112E-03  0.60956E-03
  0.10836E-02  0.14796E-02  0.10112E-02  0.15010E-02  0.44781E-02  0.69808E-02
  0.34544E-02  0.54335E-02  0.85965E-02  0.88914E-02  0.63350E-02  0.27964E-02
  0.42199E-03  0.77913E-03  0.90836E-03  0.13077E-02  0.14433E-02  0.10395E-02
  0.60928E-03  0.17668E-02  0.35950E-02  0.56096E-02  0.74818E-02  0.89161E-02
  0.96142E-02  0.91777E-02  0.72007E-02  0.37552E-02  0.25885E-02  0.68776E-02
  0.10766E-01  0.13376E-01  0.14610E-01  0.14561E-01  0.13720E-01  0.12966E-01
  0.12646E-01  0.12053E-01  0.10213E-01  0.67209E-02  0.22320E-02  0.33498E-02
  0.70281E-02  0.91412E-02  0.96938E-02  0.91008E-02  0.77528E-02  0.59432E-02
  0.39709E-02  0.21643E-02  0.88657E-03  0.85844E-03  0.11895E-02  0.10424E-02
  0.70851E-03  0.70727E-03  0.63865E-03  0.33456E-02  0.71720E-02  0.97998E-02
  0.44047E-02  0.47153E-02  0.92997E-02  0.10446E-01  0.79399E-02  0.39546E-02
  0.92413E-03  0.43858E-03  0.10637E-02  0.18229E-02  0.20837E-02  0.16419E-02
  0.66124E-03  0.10922E-02  0.29825E-02  0.50513E-02  0.69456E-02  0.83532E-02
  0.89599E-02  0.83478E-02  0.61279E-02  0.27006E-02  0.39364E-02  0.84801E-02
  0.12159E-01  0.14460E-01  0.15287E-01  0.14598E-01  0.13001E-01  0.11941E-01
  0.12101E-01  0.12342E-01  0.11256E-01  0.82385E-02  0.37490E-02  0.21806E-02
  0.59379E-02  0.83145E-02  0.90511E-02  0.85558E-02  0.72425E-02  0.54242E-02
  0.34267E-02  0.16460E-02  0.88286E-03  0.15101E-02  0.19043E-02  0.16456E-02
  0.92951E-03  0.32081E-03  0.12757E-02  0.47834E-02  0.92333E-02  0.11938E-01
  0.48930E-02  0.42753E-02  0.95040E-02  0.11004E-01  0.85302E-02  0.43807E-02
  0.11533E-02  0.38693E-03  0.11591E-02  0.20149E-02  0.23182E-02  0.18760E-02
  0.83484E-03  0.85261E-03  0.27700E-02  0.48586E-02  0.67598E-02  0.81557E-02
  0.87273E-02  0.80521E-02  0.57532E-02  0.24357E-02  0.44481E-02  0.90149E-02
  0.12610E-01  0.14803E-01  0.15473E-01  0.14499E-01  0.12532E-01  0.11307E-01
  0.11707E-01  0.12324E-01  0.11549E-01  0.87300E-02  0.42882E-02  0.18774E-02
  0.55571E-02  0.80208E-02  0.88237E-02  0.83655E-02  0.70667E-02  0.52469E-02
  0.32432E-02  0.14913E-02  0.10050E-02  0.17532E-02  0.21533E-02  0.18556E-02
  0.10433E-02  0.24931E-03  0.15533E-02  0.53298E-02  0.10017E-01  0.12749E-01
  0.44047E-02  0.47153E-02  0.92997E-02  0.10446E-01  0.79399E-02  0.39546E-02
  0.92413E-03  0.43858E-03  0.10637E-02  0.18229E-02  0.20837E-02  0.16419E-02
  0.66124E-03  0.10922E-02  0.29825E-02  0.50513E-02  0.69456E-02  0.83532E-02
  0.89599E-02  0.83478E-02  0.61279E-02  0.27006E-02  0.39364E-02  0.84801E-02
  0.12159E-01  0.14460E-01  0.15287E-01  0.14598E-01  0.13001E-01  0.11941E-01
  0.12101E-01  0.12342E-01  0.11256E-01  0.82385E-02  0.37490E-02  0.21806E-02
  0.59379E-02  0.83145E-02  0.90511E-02  0.85558E-02  0.72425E-02  0.54242E-02
  0.34267E-02  0.16460E-02  0.88286E-03  0.15101E-02  0.19043E-02  0.16456E-02
  0.92951E-03  0.32081E-03  0.12757E-02  0.47834E-02  0.92333E-02  0.11938E-01
  0.34544E-02  0.54335E-02  0.85965E-02  0.88914E-02  0.63350E-02  0.27964E-02
  0.42200E-03  0.77913E-03  0.90836E-03  0.13077E-02  0.14433E-02  0.10395E-02
  0.60928E-03  0.17668E-02  0.35950E-02  0.56096E-02  0.74818E-02  0.89161E-02
  0.96142E-02  0.91777E-02  0.72007E-02  0.37552E-02  0.25885E-02  0.68776E-02
  0.10766E-01  0.13376E-01  0.14610E-01  0.14561E-01  0.13720E-01  0.12966E-01
  0.12646E-01  0.12053E-01  0.10213E-01  0.67209E-02  0.22320E-02  0.33498E-02
  0.70281E-02  0.91412E-02  0.96938E-02  0.91008E-02  0.77528E-02  0.59432E-02
  0.39709E-02  0.21643E-02  0.88657E-03  0.85844E-03  0.11895E-02  0.10424E-02
  0.70851E-03  0.70727E-03  0.63865E-03  0.33456E-02  0.71720E-02  0.97998E-02
  0.32857E-02  0.56646E-02  0.72641E-02  0.66273E-02  0.40945E-02  0.12174E-02
  0.10487E-02  0.15483E-02  0.12797E-02  0.10242E-02  0.92896E-03  0.92187E-03
  0.15079E-02  0.27945E-02  0.45375E-02  0.64721E-02  0.83045E-02  0.97639E-02
  0.10578E-01  0.10389E-01  0.88034E-02  0.56961E-02  0.20441E-02  0.42937E-02
  0.83479E-02  0.11393E-01  0.13173E-01  0.13799E-01  0.13620E-01  0.13077E-01
  0.12275E-01  0.10795E-01  0.81087E-02  0.41518E-02  0.13522E-02  0.54015E-02
  0.86559E-02  0.10354E-01  0.10647E-01  0.99281E-02  0.85434E-02  0.67576E-02
  0.48394E-02  0.30698E-02  0.16649E-02  0.76041E-03  0.47112E-03  0.60956E-03
  0.10836E-02  0.14796E-02  0.10112E-02  0.15010E-02  0.44780E-02  0.69808E-02
  0.36981E-02  0.50603E-02  0.52827E-02  0.39423E-02  0.16098E-02  0.11272E-02
  0.24447E-02  0.27650E-02  0.24466E-02  0.20505E-02  0.19031E-02  0.21363E-02
  0.28501E-02  0.40734E-02  0.57058E-02  0.75374E-02  0.93111E-02  0.10781E-01
  0.11705E-01  0.11781E-01  0.10668E-01  0.81583E-02  0.44820E-02  0.16719E-02
  0.49364E-02  0.83232E-02  0.10640E-01  0.11836E-01  0.12091E-01  0.11594E-01
  0.10344E-01  0.81340E-02  0.48287E-02  0.10838E-02  0.41313E-02  0.79455E-02
  0.10551E-01  0.11756E-01  0.11770E-01  0.10930E-01  0.95213E-02  0.77799E-02
  0.59479E-02  0.42731E-02  0.29491E-02  0.20817E-02  0.17169E-02  0.18414E-02
  0.22950E-02  0.26758E-02  0.23859E-02  0.10966E-02  0.17317E-02  0.40069E-02
  0.32811E-02  0.34701E-02  0.27232E-02  0.11249E-02  0.14533E-02  0.32172E-02
  0.42283E-02  0.44183E-02  0.41301E-02  0.37623E-02  0.35868E-02  0.37621E-02
  0.43879E-02  0.54890E-02  0.69799E-02  0.86816E-02  0.10373E-01  0.11832E-01
  0.12838E-01  0.13147E-01  0.12493E-01  0.10666E-01  0.76920E-02  0.40007E-02
  0.16002E-02  0.42640E-02  0.68365E-02  0.83895E-02  0.88736E-02  0.83308E-02
  0.67628E-02  0.41823E-02  0.11870E-02  0.37009E-02  0.74822E-02  0.10521E-01
  0.12414E-01  0.13143E-01  0.12911E-01  0.11975E-01  0.10565E-01  0.88940E-02
  0.71821E-02  0.56464E-02  0.44630E-02  0.37352E-02  0.34793E-02  0.36225E-02
  0.39976E-02  0.43105E-02  0.41457E-02  0.31535E-02  0.14121E-02  0.11366E-02
  0.16747E-02  0.10977E-02  0.73677E-03  0.23193E-02  0.41661E-02  0.55904E-02
  0.63134E-02  0.63962E-02  0.60983E-02  0.57035E-02  0.54443E-02  0.55006E-02
  0.59895E-02  0.69318E-02  0.82467E-02  0.97849E-02  0.11362E-01  0.12776E-01
  0.13821E-01  0.14298E-01  0.14011E-01  0.12801E-01  0.10622E-01  0.76617E-02
  0.43984E-02  0.18494E-02  0.24601E-02  0.38575E-02  0.43689E-02  0.38301E-02
  0.23727E-02  0.16083E-02  0.42201E-02  0.75132E-02  0.10501E-01  0.12718E-01
  0.13979E-01  0.14327E-01  0.13916E-01  0.12927E-01  0.11549E-01  0.99834E-02
  0.84294E-02  0.70708E-02  0.60594E-02  0.54906E-02  0.53686E-02  0.55917E-02
  0.59763E-02  0.62796E-02  0.62104E-02  0.55057E-02  0.41047E-02  0.22948E-02
  0.88525E-03  0.19846E-02  0.35250E-02  0.52725E-02  0.68666E-02  0.79839E-02
  0.84947E-02  0.84778E-02  0.81259E-02  0.76596E-02  0.72942E-02  0.72187E-02
  0.75514E-02  0.83074E-02  0.94147E-02  0.10753E-01  0.12172E-01  0.13491E-01
  0.14520E-01  0.15084E-01  0.15042E-01  0.14288E-01  0.12783E-01  0.10625E-01
  0.80873E-02  0.55856E-02  0.35898E-02  0.24748E-02  0.21746E-02  0.24338E-02
  0.35265E-02  0.55157E-02  0.80178E-02  0.10562E-01  0.12736E-01  0.14269E-01
  0.15066E-01  0.15159E-01  0.14649E-01  0.13664E-01  0.12370E-01  0.10955E-01
  0.95968E-02  0.84475E-02  0.76308E-02  0.72293E-02  0.72443E-02  0.75690E-02
  0.80147E-02  0.83607E-02  0.83820E-02  0.78836E-02  0.67859E-02  0.52186E-02
  0.29211E-02  0.44358E-02  0.61137E-02  0.77795E-02  0.91785E-02  0.10105E-01
  0.10492E-01  0.10412E-01  0.10012E-01  0.94829E-02  0.90269E-02  0.88268E-02
  0.89935E-02  0.95430E-02  0.10419E-01  0.11527E-01  0.12742E-01  0.13907E-01
  0.14852E-01  0.15423E-01  0.15506E-01  0.15031E-01  0.13986E-01  0.12452E-01
  0.10613E-01  0.87347E-02  0.71194E-02  0.60364E-02  0.56560E-02  0.60309E-02
  0.71104E-02  0.87252E-02  0.10607E-01  0.12454E-01  0.14005E-01  0.15077E-01
  0.15592E-01  0.15554E-01  0.15026E-01  0.14114E-01  0.12965E-01  0.11748E-01
  0.10618E-01  0.97007E-02  0.90952E-02  0.88654E-02  0.90064E-02  0.94165E-02
  0.99162E-02  0.10300E-01  0.10378E-01  0.99966E-02  0.90857E-02  0.77092E-02
  0.43612E-02  0.61375E-02  0.79162E-02  0.95553E-02  0.10873E-01  0.11731E-01
  0.12094E-01  0.12017E-01  0.11623E-01  0.11079E-01  0.10570E-01  0.10263E-01
  0.10262E-01  0.10594E-01  0.11226E-01  0.12085E-01  0.13061E-01  0.14017E-01
  0.14810E-01  0.15310E-01  0.15415E-01  0.15067E-01  0.14273E-01  0.13117E-01
  0.11749E-01  0.10358E-01  0.91503E-02  0.83266E-02  0.80365E-02  0.83358E-02
  0.91686E-02  0.10386E-01  0.11789E-01  0.13173E-01  0.14351E-01  0.15177E-01
  0.15563E-01  0.15498E-01  0.15034E-01  0.14266E-01  0.13320E-01  0.12339E-01
  0.11456E-01  0.10782E-01  0.10396E-01  0.10337E-01  0.10584E-01  0.11041E-01
  0.11547E-01  0.11916E-01  0.11982E-01  0.11619E-01  0.10771E-01  0.94726E-02
  0.50205E-02  0.70129E-02  0.89119E-02  0.10597E-01  0.11932E-01  0.12820E-01
  0.13238E-01  0.13231E-01  0.12902E-01  0.12396E-01  0.11875E-01  0.11486E-01
  0.11328E-01  0.11448E-01  0.11838E-01  0.12441E-01  0.13156E-01  0.13864E-01
  0.14447E-01  0.14800E-01  0.14836E-01  0.14501E-01  0.13803E-01  0.12824E-01
  0.11700E-01  0.10585E-01  0.96359E-02  0.89965E-02  0.87756E-02  0.90147E-02
  0.96722E-02  0.10640E-01  0.11776E-01  0.12925E-01  0.13934E-01  0.14667E-01
  0.15041E-01  0.15043E-01  0.14722E-01  0.14160E-01  0.13460E-01  0.12737E-01
  0.12109E-01  0.11677E-01  0.11502E-01  0.11598E-01  0.11926E-01  0.12390E-01
  0.12850E-01  0.13145E-01  0.13131E-01  0.12705E-01  0.11821E-01  0.10500E-01
  0.50407E-02  0.72271E-02  0.92687E-02  0.11053E-01  0.12472E-01  0.13453E-01
  0.13979E-01  0.14085E-01  0.13856E-01  0.13420E-01  0.12916E-01  0.12474E-01
  0.12189E-01  0.12122E-01  0.12284E-01  0.12634E-01  0.13081E-01  0.13519E-01
  0.13851E-01  0.13995E-01  0.13884E-01  0.13472E-01  0.12766E-01  0.11837E-01
  0.10805E-01  0.98093E-02  0.89846E-02  0.84430E-02  0.82613E-02  0.84672E-02
  0.90332E-02  0.98833E-02  0.10907E-01  0.11971E-01  0.12937E-01  0.13683E-01
  0.14136E-01  0.14287E-01  0.14174E-01  0.13863E-01  0.13432E-01  0.12976E-01
  0.12600E-01  0.12395E-01  0.12406E-01  0.12626E-01  0.13003E-01  0.13444E-01
  0.13826E-01  0.14011E-01  0.13875E-01  0.13332E-01  0.12348E-01  0.10938E-01
  0.45748E-02  0.69394E-02  0.91372E-02  0.11056E-01  0.12602E-01  0.13717E-01
  0.14385E-01  0.14631E-01  0.14525E-01  0.14176E-01  0.13710E-01  0.13243E-01
  0.12869E-01  0.12651E-01  0.12612E-01  0.12719E-01  0.12899E-01  0.13061E-01
  0.13124E-01  0.13024E-01  0.12709E-01  0.12149E-01  0.11357E-01  0.10392E-01
  0.93576E-02  0.83820E-02  0.75904E-02  0.70816E-02  0.69149E-02  0.71095E-02
  0.76465E-02  0.84674E-02  0.94756E-02  0.10547E-01  0.11554E-01  0.12392E-01
  0.12998E-01  0.13356E-01  0.13491E-01  0.13451E-01  0.13297E-01  0.13108E-01
  0.12973E-01  0.12968E-01  0.13127E-01  0.13434E-01  0.13829E-01  0.14226E-01
  0.14512E-01  0.14566E-01  0.14280E-01  0.13586E-01  0.12460E-01  0.10918E-01
  0.37448E-02  0.62670E-02  0.86234E-02  0.10695E-01  0.12393E-01  0.13668E-01