       #
       # Generated by the Wannier90 code http://www.wannier.org
       # On 13May2024 at 14:14:03 
       #
CRYSTAL
PRIMVEC
   2.7281430   0.0000000   0.0000000
   0.0000000   2.7281430   0.0000000
   0.0000000   0.0000000   3.7789840
CONVVEC
   2.7281430   0.0000000   0.0000000
   0.0000000   2.7281430   0.0000000
   0.0000000   0.0000000   3.7789840
PRIMCOORD
     2  1
Fe      0.0000000   0.0000000   0.0000000
Pt      1.3640715   1.3640715   1.8894920


BEGIN_BLOCK_DATAGRID_3D
3D_field
BEGIN_DATAGRID_3D_UNKNOWN
    54    54    80
   -2.829185   -2.829185   -3.873459
   5.3552437   0.0000000   0.0000000
   0.0000000   5.3552437   0.0000000
   0.0000000   0.0000000   7.4634934
  0.12578E-02  0.16545E-02  0.26204E-02  0.30555E-02  0.26962E-02  0.18592E-02
  0.10321E-02  0.51462E-03  0.35434E-03  0.40137E-03  0.47118E-03  0.51219E-03
  0.52159E-03  0.50070E-03  0.46153E-03  0.43507E-03  0.44938E-03  0.49394E-03
  0.50444E-03  0.38447E-03  0.19925E-03  0.59623E-03  0.11103E-02  0.14370E-02
  0.15189E-02  0.14488E-02  0.13268E-02  0.12874E-02  0.14918E-02  0.17980E-02
  0.19520E-02  0.19081E-02  0.17685E-02  0.15491E-02  0.11630E-02  0.64606E-03
  0.31283E-03  0.46072E-03  0.56410E-03  0.53551E-03  0.44790E-03  0.36034E-03
  0.31115E-03  0.30652E-03  0.31570E-03  0.31883E-03  0.31621E-03  0.31308E-03
  0.34507E-03  0.53665E-03  0.10715E-02  0.19553E-02  0.28582E-02  0.32389E-02
  0.16271E-02  0.48838E-03  0.14484E-02  0.22999E-02  0.23039E-02  0.17049E-02
  0.98220E-03  0.48227E-03  0.31756E-03  0.35878E-03  0.42054E-03  0.46238E-03
  0.48920E-03  0.51694E-03  0.57045E-03  0.66513E-03  0.79059E-03  0.91141E-03
  0.95688E-03  0.82565E-03  0.45578E-03  0.23759E-03  0.83950E-03  0.14230E-02
  0.19572E-02  0.25158E-02  0.31110E-02  0.36497E-02  0.39590E-02  0.38966E-02
  0.34725E-02  0.28390E-02  0.21684E-02  0.15315E-02  0.88849E-03  0.27858E-03
  0.47139E-03  0.83771E-03  0.96989E-03  0.92031E-03  0.78186E-03  0.61787E-03
  0.46252E-03  0.34018E-03  0.26186E-03  0.22073E-03  0.20996E-03  0.22688E-03
  0.28901E-03  0.49978E-03  0.10133E-02  0.17889E-02  0.24617E-02  0.25005E-02
  0.26928E-02  0.15974E-02  0.76837E-03  0.13265E-02  0.15528E-02  0.12331E-02
  0.72543E-03  0.35543E-03  0.27745E-03  0.35107E-03  0.43052E-03  0.50365E-03
  0.58160E-03  0.68166E-03  0.81861E-03  0.99116E-03  0.11821E-02  0.13569E-02
  0.14462E-02  0.13508E-02  0.99943E-03  0.42225E-03  0.35336E-03  0.11484E-02
  0.20991E-02  0.32585E-02  0.45304E-02  0.56000E-02  0.60717E-02  0.57383E-02
  0.47423E-02  0.34634E-02  0.22482E-02  0.12337E-02  0.38501E-03  0.39489E-03
  0.98511E-03  0.13417E-02  0.14405E-02  0.13512E-02  0.11689E-02  0.95844E-03
  0.75245E-03  0.57090E-03  0.42423E-03  0.30993E-03  0.22677E-03  0.18880E-03
  0.21489E-03  0.36418E-03  0.74055E-03  0.12800E-02  0.16548E-02  0.14505E-02
  0.31720E-02  0.24570E-02  0.14539E-02  0.90944E-03  0.85887E-03  0.68789E-03
  0.40272E-03  0.23545E-03  0.28194E-03  0.37907E-03  0.47698E-03  0.58158E-03
  0.70430E-03  0.86013E-03  0.10566E-02  0.12862E-02  0.15304E-02  0.17573E-02
  0.19038E-02  0.18784E-02  0.16074E-02  0.10879E-02  0.37521E-03  0.54041E-03
  0.16883E-02  0.31287E-02  0.46971E-02  0.59824E-02  0.65105E-02  0.60566E-02
  0.48115E-02  0.32417E-02  0.17749E-02  0.59585E-03  0.34533E-03  0.10689E-02
  0.15926E-02  0.18657E-02  0.18931E-02  0.17472E-02  0.15172E-02  0.12631E-02
  0.10150E-02  0.79182E-03  0.60482E-03  0.45255E-03  0.32881E-03  0.23835E-03
  0.19592E-03  0.22660E-03  0.40357E-03  0.68994E-03  0.87206E-03  0.86717E-03
  0.27928E-02  0.24115E-02  0.16362E-02  0.89000E-03  0.44888E-03  0.25340E-03
  0.17503E-03  0.22469E-03  0.31277E-03  0.40760E-03  0.51540E-03  0.64128E-03
  0.79532E-03  0.99092E-03  0.12310E-02  0.15042E-02  0.17918E-02  0.20654E-02
  0.22722E-02  0.23336E-02  0.21781E-02  0.17828E-02  0.11695E-02  0.34865E-03
  0.75068E-03  0.20982E-02  0.35468E-02  0.47153E-02  0.51798E-02  0.47470E-02
  0.35946E-02  0.21439E-02  0.78828E-03  0.35135E-03  0.11663E-02  0.17795E-02
  0.21728E-02  0.23269E-02  0.22653E-02  0.20586E-02  0.17839E-02  0.14919E-02
  0.12093E-02  0.95440E-03  0.73963E-03  0.56518E-03  0.42255E-03  0.31050E-03
  0.23897E-03  0.19977E-03  0.17336E-03  0.22871E-03  0.41560E-03  0.84027E-03
  0.19049E-02  0.17457E-02  0.12544E-02  0.68498E-03  0.23853E-03  0.42523E-04
  0.18225E-03  0.26191E-03  0.32765E-03  0.41244E-03  0.52449E-03  0.66366E-03
  0.83872E-03  0.10606E-02  0.13282E-02  0.16289E-02  0.19451E-02  0.22525E-02
  0.25093E-02  0.26534E-02  0.26216E-02  0.23804E-02  0.19339E-02  0.12946E-02
  0.46473E-03  0.59475E-03  0.16625E-02  0.25156E-02  0.28467E-02  0.25206E-02
  0.16676E-02  0.59835E-03  0.48649E-03  0.13152E-02  0.19528E-02  0.23946E-02
  0.26305E-02  0.26584E-02  0.25123E-02  0.22549E-02  0.19475E-02  0.16307E-02
  0.13271E-02  0.10534E-02  0.82211E-03  0.63500E-03  0.48375E-03  0.36425E-03
  0.28577E-03  0.24447E-03  0.18790E-03  0.56620E-04  0.24418E-03  0.69283E-03
  0.10405E-02  0.98419E-03  0.71858E-03  0.38983E-03  0.16139E-03  0.17376E-03
  0.23792E-03  0.27488E-03  0.31607E-03  0.39049E-03  0.50215E-03  0.64842E-03
  0.83586E-03  0.10706E-02  0.13481E-02  0.16568E-02  0.19823E-02  0.23045E-02
  0.25912E-02  0.27969E-02  0.28723E-02  0.27822E-02  0.25197E-02  0.21007E-02
  0.15471E-02  0.89635E-03  0.25819E-03  0.32543E-03  0.50813E-03  0.31489E-03
  0.27578E-03  0.92797E-03  0.15862E-02  0.21417E-02  0.25576E-02  0.28139E-02
  0.28975E-02  0.28172E-02  0.26084E-02  0.23209E-02  0.19997E-02  0.16763E-02
  0.13698E-02  0.10933E-02  0.85740E-03  0.66550E-03  0.51211E-03  0.39306E-03
  0.31561E-03  0.28105E-03  0.25476E-03  0.19577E-03  0.18613E-03  0.41603E-03
  0.52489E-03  0.48804E-03  0.35518E-03  0.22237E-03  0.19670E-03  0.23482E-03
  0.26065E-03  0.27104E-03  0.29078E-03  0.34832E-03  0.45144E-03  0.59717E-03
  0.78727E-03  0.10208E-02  0.12901E-02  0.15866E-02  0.19011E-02  0.22173E-02
  0.25095E-02  0.27468E-02  0.28965E-02  0.29292E-02  0.28303E-02  0.26102E-02
  0.22994E-02  0.19396E-02  0.15886E-02  0.13262E-02  0.12326E-02  0.13428E-02
  0.16211E-02  0.19852E-02  0.23531E-02  0.26663E-02  0.28839E-02  0.29774E-02
  0.29389E-02  0.27844E-02  0.25442E-02  0.22516E-02  0.19378E-02  0.16278E-02
  0.13374E-02  0.10747E-02  0.84665E-03  0.65841E-03  0.50929E-03  0.39765E-03
  0.32895E-03  0.30288E-03  0.29429E-03  0.27060E-03  0.22739E-03  0.23945E-03
  0.35314E-03  0.30016E-03  0.23264E-03  0.21660E-03  0.25178E-03  0.28548E-03
  0.29839E-03  0.29224E-03  0.28404E-03  0.30758E-03  0.38597E-03  0.51830E-03
  0.69803E-03  0.91560E-03  0.11601E-02  0.14264E-02  0.17110E-02  0.20012E-02
  0.22751E-02  0.25124E-02  0.26962E-02  0.28075E-02  0.28288E-02  0.27596E-02
  0.26233E-02  0.24569E-02  0.22992E-02  0.21873E-02  0.21525E-02  0.22072E-02
  0.23373E-02  0.25097E-02  0.26857E-02  0.28263E-02  0.28954E-02  0.28712E-02
  0.27560E-02  0.25688E-02  0.23297E-02  0.20568E-02  0.17707E-02  0.14930E-02
  0.12359E-02  0.10019E-02  0.79397E-03  0.61941E-03  0.48294E-03  0.38731E-03
  0.33760E-03  0.32765E-03  0.33237E-03  0.32790E-03  0.30255E-03  0.26638E-03
  0.34055E-03  0.26586E-03  0.23759E-03  0.27948E-03  0.33845E-03  0.37712E-03
  0.38747E-03  0.36953E-03  0.33391E-03  0.31154E-03  0.34132E-03  0.43775E-03
  0.58923E-03  0.77605E-03  0.98225E-03  0.12040E-02  0.14426E-02  0.16885E-02
  0.19226E-02  0.21309E-02  0.23085E-02  0.24478E-02  0.25338E-02  0.25580E-02
  0.25318E-02  0.24806E-02  0.24292E-02  0.23952E-02  0.23897E-02  0.24160E-02
  0.24691E-02  0.25365E-02  0.25995E-02  0.26330E-02  0.26120E-02  0.25265E-02
  0.23862E-02  0.22077E-02  0.19998E-02  0.17687E-02  0.15291E-02  0.12997E-02
  0.10891E-02  0.89442E-03  0.71690E-03  0.56648E-03  0.45334E-03  0.38489E-03
  0.36485E-03  0.37801E-03  0.39603E-03  0.40071E-03  0.38471E-03  0.34985E-03
  0.36095E-03  0.27575E-03  0.29340E-03  0.37993E-03  0.46040E-03  0.50795E-03
  0.51968E-03  0.49585E-03  0.44364E-03  0.38634E-03  0.35950E-03  0.39459E-03
  0.49527E-03  0.63715E-03  0.79553E-03  0.96307E-03  0.11424E-02  0.13275E-02
  0.15024E-02  0.16573E-02  0.17941E-02  0.19142E-02  0.20089E-02  0.20686E-02
  0.20962E-02  0.21053E-02  0.21082E-02  0.21120E-02  0.21198E-02  0.21327E-02
  0.21485E-02  0.21629E-02  0.21683E-02  0.21515E-02  0.20993E-02  0.20093E-02
  0.18922E-02  0.17579E-02  0.16064E-02  0.14368E-02  0.12597E-02  0.10904E-02
  0.93293E-03  0.78233E-03  0.64100E-03  0.52358E-03  0.44546E-03  0.41564E-03
  0.43057E-03  0.46616E-03  0.49432E-03  0.50109E-03  0.48189E-03  0.43736E-03
  0.37644E-03  0.30194E-03  0.37826E-03  0.50562E-03  0.60776E-03  0.66690E-03
  0.68392E-03  0.65926E-03  0.59768E-03  0.51776E-03  0.44799E-03  0.41901E-03
  0.45205E-03  0.53606E-03  0.64053E-03  0.74876E-03  0.85962E-03  0.96985E-03
  0.10688E-02  0.11510E-02  0.12223E-02  0.12892E-02  0.13489E-02  0.13961E-02
  0.14314E-02  0.14599E-02  0.14837E-02  0.15021E-02  0.15149E-02  0.15224E-02
  0.15241E-02  0.15196E-02  0.15092E-02  0.14898E-02  0.14559E-02  0.14068E-02
  0.13481E-02  0.12832E-02  0.12067E-02  0.11137E-02  0.10101E-02  0.90524E-03
  0.80014E-03  0.69177E-03  0.58843E-03  0.51122E-03  0.47869E-03  0.49442E-03
  0.54321E-03  0.59624E-03  0.62896E-03  0.63160E-03  0.60107E-03  0.53608E-03
  0.38001E-03  0.34209E-03  0.48580E-03  0.65537E-03  0.78340E-03  0.85861E-03
  0.88398E-03  0.85952E-03  0.78840E-03  0.68778E-03  0.58476E-03  0.50686E-03
  0.47751E-03  0.50018E-03  0.54988E-03  0.60099E-03  0.64355E-03  0.67387E-03
  0.68801E-03  0.68764E-03  0.68265E-03  0.68263E-03  0.69033E-03  0.70558E-03
  0.72893E-03  0.75833E-03  0.78734E-03  0.80961E-03  0.82278E-03  0.82735E-03
  0.82468E-03  0.81830E-03  0.81448E-03  0.81775E-03  0.82694E-03  0.83870E-03
  0.85196E-03  0.86418E-03  0.86726E-03  0.85295E-03  0.82026E-03  0.77244E-03
  0.71062E-03  0.63863E-03  0.57347E-03  0.54193E-03  0.56055E-03  0.62298E-03
  0.70432E-03  0.77320E-03  0.80770E-03  0.80132E-03  0.75224E-03  0.65752E-03
  0.36917E-03  0.40533E-03  0.62187E-03  0.83749E-03  0.99720E-03  0.10923E-02
  0.11257E-02  0.10969E-02  0.10094E-02  0.88199E-03  0.74483E-03  0.62697E-03
  0.55091E-03  0.52480E-03  0.53117E-03  0.54166E-03  0.53847E-03  0.51616E-03
  0.47902E-03  0.44187E-03  0.42502E-03  0.44143E-03  0.49011E-03  0.55925E-03
  0.63240E-03  0.69617E-03  0.74401E-03  0.77332E-03  0.78224E-03  0.77090E-03
  0.74286E-03  0.70335E-03  0.65824E-03  0.61639E-03  0.58924E-03  0.58442E-03
  0.60198E-03  0.63602E-03  0.67512E-03  0.70491E-03  0.71494E-03  0.70185E-03
  0.66794E-03  0.62422E-03  0.59541E-03  0.61059E-03  0.68060E-03  0.79015E-03
  0.90724E-03  0.99684E-03  0.10365E-02  0.10204E-02  0.94783E-03  0.81572E-03
  0.35845E-03  0.50625E-03  0.79226E-03  0.10554E-02  0.12505E-02  0.13674E-02
  0.14063E-02  0.13666E-02  0.12534E-02  0.10895E-02  0.91052E-03  0.75056E-03
  0.63447E-03  0.57312E-03  0.55333E-03  0.54654E-03  0.53335E-03  0.51525E-03
  0.51492E-03  0.56144E-03  0.66117E-03  0.79697E-03  0.94890E-03  0.10991E-02
  0.12308E-02  0.13327E-02  0.14025E-02  0.14419E-02  0.14512E-02  0.14305E-02
  0.13819E-02  0.13074E-02  0.12070E-02  0.10850E-02  0.95378E-03  0.83097E-03
  0.73337E-03  0.67476E-03  0.65868E-03  0.66937E-03  0.68150E-03  0.67796E-03
  0.65658E-03  0.63231E-03  0.63624E-03  0.69798E-03  0.82108E-03  0.98176E-03
  0.11412E-02  0.12591E-02  0.13100E-02  0.12867E-02  0.11891E-02  0.10163E-02
  0.37988E-03  0.64328E-03  0.98959E-03  0.12996E-02  0.15322E-02  0.16723E-02
  0.17163E-02  0.16623E-02  0.15179E-02  0.13097E-02  0.10795E-02  0.86775E-03
  0.70594E-03  0.61191E-03  0.57596E-03  0.56517E-03  0.55725E-03  0.56167E-03
  0.61466E-03  0.74339E-03  0.93614E-03  0.11622E-02  0.13951E-02  0.16133E-02
  0.17988E-02  0.19396E-02  0.20335E-02  0.20845E-02  0.20963E-02  0.20708E-02
  0.20080E-02  0.19054E-02  0.17606E-02  0.15770E-02  0.13672E-02  0.11510E-02
  0.95123E-03  0.79489E-03  0.70483E-03  0.67666E-03  0.67631E-03  0.67142E-03
  0.65316E-03  0.64153E-03  0.67787E-03  0.79190E-03  0.97523E-03  0.11932E-02
  0.14000E-02  0.15504E-02  0.16154E-02  0.15861E-02  0.14630E-02  0.12492E-02
  0.44275E-03  0.79612E-03  0.11955E-02  0.15525E-02  0.18249E-02  0.19911E-02
  0.20426E-02  0.19763E-02  0.18008E-02  0.15460E-02  0.12575E-02  0.98187E-03
  0.76038E-03  0.62619E-03  0.57779E-03  0.56942E-03  0.56481E-03  0.57510E-03
  0.64965E-03  0.82362E-03  0.10792E-02  0.13742E-02  0.16716E-02  0.19445E-02
  0.21731E-02  0.23445E-02  0.24560E-02  0.25136E-02  0.25265E-02  0.24990E-02
  0.24282E-02  0.23063E-02  0.21282E-02  0.18977E-02  0.16285E-02  0.13420E-02
  0.10678E-02  0.84577E-03  0.71386E-03  0.67169E-03  0.67143E-03  0.66610E-03
  0.64425E-03  0.63951E-03  0.71330E-03  0.89170E-03  0.11448E-02  0.14245E-02
  0.16793E-02  0.18610E-02  0.19380E-02  0.19004E-02  0.17500E-02  0.14946E-02
  0.51707E-03  0.93033E-03  0.13772E-02  0.17835E-02  0.21013E-02  0.23005E-02
  0.23660E-02  0.22928E-02  0.20902E-02  0.17901E-02  0.14405E-02  0.10919E-02
  0.79622E-03  0.61161E-03  0.55842E-03  0.56615E-03  0.56525E-03  0.55801E-03
  0.60924E-03  0.78391E-03  0.10692E-02  0.14069E-02  0.17453E-02  0.20501E-02
  0.23003E-02  0.24832E-02  0.25964E-02  0.26501E-02  0.26603E-02  0.26350E-02
  0.25675E-02  0.24428E-02  0.22516E-02  0.19973E-02  0.16935E-02  0.13635E-02
  0.10455E-02  0.79744E-03  0.67364E-03  0.66058E-03  0.68000E-03  0.67292E-03
  0.63381E-03  0.62390E-03  0.74003E-03  0.99430E-03  0.13235E-02  0.16659E-02
  0.19662E-02  0.21747E-02  0.22581E-02  0.22059E-02  0.20220E-02  0.17204E-02
  0.54055E-03  0.98044E-03  0.14687E-02  0.19316E-02  0.23097E-02  0.25591E-02
  0.26544E-02  0.25860E-02  0.23642E-02  0.20230E-02  0.16131E-02  0.11882E-02
  0.80985E-03  0.57030E-03  0.53629E-03  0.59195E-03  0.61105E-03  0.57599E-03
  0.55053E-03  0.65479E-03  0.92201E-03  0.12705E-02  0.16217E-02  0.19290E-02
  0.21683E-02  0.23286E-02  0.24126E-02  0.24407E-02  0.24406E-02  0.24258E-02
  0.23839E-02  0.22880E-02  0.21185E-02  0.18735E-02  0.15658E-02  0.12228E-02
  0.89856E-03  0.68310E-03  0.64244E-03  0.70228E-03  0.74717E-03  0.72400E-03
  0.64140E-03  0.60001E-03  0.75474E-03  0.10892E-02  0.14953E-02  0.18982E-02
  0.22393E-02  0.24663E-02  0.25441E-02  0.24616E-02  0.22271E-02  0.18647E-02
  0.42945E-03  0.84977E-03  0.13725E-02  0.19060E-02  0.23718E-02  0.27046E-02
  0.28617E-02  0.28245E-02  0.26018E-02  0.22301E-02  0.17648E-02  0.12654E-02
  0.80283E-03  0.51318E-03  0.54345E-03  0.68674E-03  0.75429E-03  0.71493E-03
  0.60335E-03  0.53861E-03  0.68828E-03  0.99977E-03  0.13324E-02  0.16085E-02
  0.17938E-02  0.18801E-02  0.18851E-02  0.18517E-02  0.18287E-02  0.18381E-02
  0.18587E-02  0.18423E-02  0.17464E-02  0.15546E-02  0.12776E-02  0.95648E-03
  0.68533E-03  0.61255E-03  0.72893E-03  0.85982E-03  0.90815E-03  0.84432E-03
  0.68932E-03  0.58001E-03  0.75837E-03  0.11705E-02  0.16498E-02  0.21074E-02
  0.24782E-02  0.27055E-02  0.27513E-02  0.26064E-02  0.22879E-02  0.18375E-02
  0.25240E-03  0.47843E-03  0.10170E-02  0.16326E-02  0.22157E-02  0.26733E-02
  0.29378E-02  0.29746E-02  0.27849E-02  0.24056E-02  0.18973E-02  0.13293E-02
  0.78499E-03  0.45823E-03  0.60221E-03  0.85313E-03  0.98976E-03  0.98016E-03
  0.84042E-03  0.62912E-03  0.51286E-03  0.66945E-03  0.93765E-03  0.11457E-02
  0.12279E-02  0.11804E-02  0.10520E-02  0.92644E-03  0.87394E-03  0.91708E-03
  0.10326E-02  0.11507E-02  0.11885E-02  0.10991E-02  0.89138E-03  0.64680E-03
  0.56299E-03  0.74001E-03  0.97530E-03  0.11294E-02  0.11512E-02  0.10263E-02
  0.78251E-03  0.57711E-03  0.75870E-03  0.12428E-02  0.17886E-02  0.22883E-02
  0.26664E-02  0.28599E-02  0.28311E-02  0.25780E-02  0.21344E-02  0.15667E-02
  0.60521E-03  0.23429E-03  0.42354E-03  0.11057E-02  0.18168E-02  0.24303E-02
  0.28465E-02  0.30056E-02  0.28936E-02  0.25408E-02  0.20113E-02  0.13862E-02
  0.76635E-03  0.42379E-03  0.70793E-03  0.10633E-02  0.12746E-02  0.13100E-02
  0.11797E-02  0.92060E-03  0.61501E-03  0.45062E-03  0.54757E-03  0.64972E-03
  0.59755E-03  0.43348E-03  0.44626E-03  0.66774E-03  0.77900E-03  0.67349E-03
  0.45864E-03  0.43559E-03  0.58044E-03  0.62028E-03  0.52183E-03  0.47472E-03
  0.69877E-03  0.10329E-02  0.13106E-02  0.14568E-02  0.14370E-02  0.12429E-02
  0.90802E-03  0.59734E-03  0.76296E-03  0.13113E-02  0.19122E-02  0.24329E-02
  0.27845E-02  0.29002E-02  0.27488E-02  0.23439E-02  0.17448E-02  0.10505E-02
  0.11200E-02  0.84422E-03  0.34169E-03  0.37383E-03  0.11941E-02  0.19776E-02
  0.25792E-02  0.29020E-02  0.29094E-02  0.26201E-02  0.20974E-02  0.14338E-02
  0.75117E-03  0.42374E-03  0.84231E-03  0.12884E-02  0.15684E-02  0.16472E-02
  0.15310E-02  0.12529E-02  0.87545E-03  0.51327E-03  0.34232E-03  0.30671E-03
  0.26796E-03  0.65932E-03  0.12865E-02  0.18190E-02  0.20228E-02  0.18102E-02
  0.12801E-02  0.67231E-03  0.30422E-03  0.30859E-03  0.34205E-03  0.55561E-03
  0.95253E-03  0.13557E-02  0.16547E-02  0.17891E-02  0.17281E-02  0.14681E-02
  0.10491E-02  0.63864E-03  0.77209E-03  0.13724E-02  0.20108E-02  0.25254E-02
  0.28144E-02  0.28117E-02  0.24976E-02  0.19086E-02  0.11411E-02  0.34682E-03
  0.14676E-02  0.14634E-02  0.11869E-02  0.56788E-03  0.36651E-03  0.13259E-02
  0.21499E-02  0.26730E-02  0.28313E-02  0.26348E-02  0.21463E-02  0.14672E-02
  0.74211E-03  0.45991E-03  0.98497E-03  0.15050E-02  0.18424E-02  0.19551E-02
  0.18435E-02  0.15367E-02  0.10936E-02  0.62718E-03  0.32433E-03  0.21712E-03
  0.38278E-03  0.11019E-02  0.20105E-02  0.27494E-02  0.30182E-02  0.27080E-02
  0.19528E-02  0.10618E-02  0.38411E-03  0.20357E-03  0.29002E-03  0.64306E-03
  0.11510E-02  0.16256E-02  0.19577E-02  0.20903E-02  0.19970E-02  0.16807E-02
  0.11896E-02  0.69367E-03  0.78475E-03  0.14197E-02  0.20740E-02  0.25562E-02
  0.27545E-02  0.26034E-02  0.20923E-02  0.12836E-02  0.33267E-03  0.56973E-03
  0.15913E-02  0.20566E-02  0.21956E-02  0.17602E-02  0.79262E-03  0.48293E-03
  0.15801E-02  0.23485E-02  0.26826E-02  0.25964E-02  0.21613E-02  0.14882E-02
  0.74315E-03  0.51765E-03  0.11160E-02  0.16931E-02  0.20755E-02  0.22119E-02
  0.20919E-02  0.17345E-02  0.11943E-02  0.61196E-03  0.34810E-03  0.39013E-03
  0.43441E-03  0.11907E-02  0.22637E-02  0.31347E-02  0.34347E-02  0.30437E-02
  0.21332E-02  0.10952E-02  0.44397E-03  0.37663E-03  0.20779E-03  0.56523E-03
  0.12223E-02  0.18053E-02  0.21941E-02  0.23386E-02  0.22234E-02  0.18625E-02
  0.13138E-02  0.75183E-03  0.80153E-03  0.14532E-02  0.21034E-02  0.25350E-02
  0.26265E-02  0.23041E-02  0.15534E-02  0.46843E-03  0.74610E-03  0.17036E-02
  0.15711E-02  0.26825E-02  0.34168E-02  0.32493E-02  0.21699E-02  0.62382E-03
  0.90772E-03  0.19713E-02  0.25011E-02  0.25311E-02  0.21567E-02  0.15024E-02
  0.75444E-03  0.57773E-03  0.12219E-02  0.18397E-02  0.22541E-02  0.24036E-02
  0.22636E-02  0.18363E-02  0.11720E-02  0.51751E-03  0.70605E-03  0.10490E-02
  0.10685E-02  0.13392E-02  0.21889E-02  0.29809E-02  0.32389E-02  0.28481E-02
  0.20382E-02  0.13501E-02  0.12147E-02  0.11141E-02  0.62305E-03  0.33141E-03
  0.11592E-02  0.18859E-02  0.23523E-02  0.25211E-02  0.23947E-02  0.20020E-02
  0.14114E-02  0.80347E-03  0.82189E-03  0.14776E-02  0.21116E-02  0.24860E-02
  0.24656E-02  0.19537E-02  0.91685E-03  0.56798E-03  0.20712E-02  0.31208E-02
  0.14337E-02  0.33093E-02  0.47299E-02  0.48571E-02  0.36498E-02  0.17111E-02
  0.23886E-03  0.16015E-02  0.23274E-02  0.24651E-02  0.21458E-02  0.15127E-02
  0.76956E-03  0.62790E-03  0.12986E-02  0.19414E-02  0.23741E-02  0.25268E-02
  0.23599E-02  0.18575E-02  0.10741E-02  0.57370E-03  0.12927E-02  0.19071E-02
  0.20558E-02  0.19887E-02  0.21552E-02  0.24569E-02  0.25327E-02  0.23432E-02
  0.21612E-02  0.22339E-02  0.23342E-02  0.20540E-02  0.12738E-02  0.28349E-03
  0.10096E-02  0.18862E-02  0.24361E-02  0.26360E-02  0.25083E-02  0.20973E-02
  0.14801E-02  0.84328E-03  0.84130E-03  0.14953E-02  0.21109E-02  0.24332E-02
  0.23093E-02  0.16083E-02  0.29268E-03  0.16178E-02  0.34900E-02  0.46499E-02
  0.11740E-02  0.37991E-02  0.57934E-02  0.61541E-02  0.48351E-02  0.25806E-02
  0.33470E-03  0.13223E-02  0.22006E-02  0.24173E-02  0.21366E-02  0.15187E-02
  0.78099E-03  0.66154E-03  0.13458E-02  0.20007E-02  0.24406E-02  0.25902E-02
  0.23991E-02  0.18385E-02  0.97776E-03  0.77434E-03  0.18029E-02  0.26204E-02
  0.28925E-02  0.26994E-02  0.22789E-02  0.17608E-02  0.14056E-02  0.17625E-02
  0.25166E-02  0.31162E-02  0.32747E-02  0.28330E-02  0.18262E-02  0.54759E-03
  0.86216E-03  0.18513E-02  0.24669E-02  0.26939E-02  0.25704E-02  0.21519E-02
  0.15212E-02  0.86872E-03  0.85441E-03  0.15059E-02  0.21080E-02  0.23939E-02
  0.21941E-02  0.13466E-02  0.30501E-03  0.24540E-02  0.46249E-02  0.58821E-02
  0.10049E-02  0.39875E-02  0.62079E-02  0.66575E-02  0.52935E-02  0.29156E-02
  0.53198E-03  0.12171E-02  0.21538E-02  0.23999E-02  0.21330E-02  0.15206E-02
  0.78503E-03  0.67355E-03  0.13620E-02  0.20202E-02  0.24615E-02  0.26089E-02
  0.24080E-02  0.18253E-02  0.94041E-03  0.87394E-03  0.20034E-02  0.28968E-02
  0.32171E-02  0.29903E-02  0.23583E-02  0.13502E-02  0.13066E-08  0.14588E-02
  0.26959E-02  0.34697E-02  0.36394E-02  0.31349E-02  0.20419E-02  0.67076E-03
  0.80197E-03  0.18321E-02  0.24728E-02  0.27107E-02  0.25898E-02  0.21696E-02
  0.15351E-02  0.87758E-03  0.85887E-03  0.15093E-02  0.21066E-02  0.23794E-02
  0.21513E-02  0.12479E-02  0.48312E-03  0.27761E-02  0.50636E-02  0.63602E-02
  0.11740E-02  0.37991E-02  0.57934E-02  0.61541E-02  0.48351E-02  0.25806E-02
  0.33470E-03  0.13223E-02  0.22006E-02  0.24173E-02  0.21366E-02  0.15187E-02
  0.78099E-03  0.66154E-03  0.13458E-02  0.20007E-02  0.24406E-02  0.25902E-02
  0.23991E-02  0.18385E-02  0.97776E-03  0.77434E-03  0.18029E-02  0.26204E-02
  0.28925E-02  0.26994E-02  0.22789E-02  0.17608E-02  0.14056E-02  0.17625E-02
  0.25166E-02  0.31162E-02  0.32747E-02  0.28330E-02  0.18262E-02  0.54759E-03
  0.86216E-03  0.18513E-02  0.24669E-02  0.26939E-02  0.25704E-02  0.21519E-02
  0.15212E-02  0.86872E-03  0.85441E-03  0.15059E-02  0.21080E-02  0.23939E-02
  0.21941E-02  0.13466E-02  0.30501E-03  0.24540E-02  0.46249E-02  0.58821E-02
  0.14337E-02  0.33093E-02  0.47299E-02  0.48571E-02  0.36498E-02  0.17111E-02
  0.23886E-03  0.16015E-02  0.23274E-02  0.24651E-02  0.21458E-02  0.15127E-02
  0.76956E-03  0.62790E-03  0.12986E-02  0.19414E-02  0.23741E-02  0.25268E-02
  0.23599E-02  0.18575E-02  0.10741E-02  0.57370E-03  0.12927E-02  0.19071E-02
  0.20558E-02  0.19887E-02  0.21552E-02  0.24569E-02  0.25327E-02  0.23432E-02
  0.21612E-02  0.22339E-02  0.23342E-02  0.20540E-02  0.12738E-02  0.28349E-03
  0.10096E-02  0.18862E-02  0.24361E-02  0.26360E-02  0.25083E-02  0.20973E-02
  0.14801E-02  0.84328E-03  0.84130E-03  0.14953E-02  0.21109E-02  0.24332E-02
  0.23093E-02  0.16083E-02  0.29268E-03  0.16178E-02  0.34900E-02  0.46499E-02
  0.15711E-02  0.26825E-02  0.34168E-02  0.32493E-02  0.21699E-02  0.62382E-03
  0.90772E-03  0.19713E-02  0.25011E-02  0.25311E-02  0.21567E-02  0.15024E-02
  0.75444E-03  0.57773E-03  0.12219E-02  0.18397E-02  0.22541E-02  0.24036E-02
  0.22636E-02  0.18363E-02  0.11720E-02  0.51751E-03  0.70605E-03  0.10490E-02
  0.10685E-02  0.13392E-02  0.21889E-02  0.29809E-02  0.32389E-02  0.28481E-02
  0.20382E-02  0.13501E-02  0.12147E-02  0.11141E-02  0.62305E-03  0.33141E-03
  0.11592E-02  0.18859E-02  0.23523E-02  0.25211E-02  0.23947E-02  0.20020E-02
  0.14114E-02  0.80347E-03  0.82189E-03  0.14776E-02  0.21116E-02  0.24860E-02
  0.24656E-02  0.19537E-02  0.91685E-03  0.56798E-03  0.20712E-02  0.31208E-02
  0.15913E-02  0.20566E-02  0.21956E-02  0.17602E-02  0.79262E-03  0.48293E-03
  0.15801E-02  0.23485E-02  0.26826E-02  0.25964E-02  0.21613E-02  0.14882E-02
  0.74315E-03  0.51765E-03  0.11160E-02  0.16931E-02  0.20755E-02  0.22119E-02
  0.20919E-02  0.17345E-02  0.11943E-02  0.61196E-03  0.34810E-03  0.39013E-03
  0.43441E-03  0.11907E-02  0.22637E-02  0.31347E-02  0.34347E-02  0.30437E-02
  0.21332E-02  0.10952E-02  0.44397E-03  0.37663E-03  0.20779E-03  0.56523E-03
  0.12223E-02  0.18053E-02  0.21941E-02  0.23386E-02  0.22234E-02  0.18625E-02
  0.13138E-02  0.75183E-03  0.80153E-03  0.14532E-02  0.21034E-02  0.25350E-02
  0.26265E-02  0.23041E-02  0.15534E-02  0.46843E-03  0.74610E-03  0.17036E-02
  0.14676E-02  0.14634E-02  0.11869E-02  0.56788E-03  0.36651E-03  0.13259E-02
  0.21499E-02  0.26730E-02  0.28313E-02  0.26348E-02  0.21463E-02  0.14672E-02
  0.74211E-03  0.45991E-03  0.98497E-03  0.15050E-02  0.18424E-02  0.19551E-02
  0.18435E-02  0.15367E-02  0.10936E-02  0.62718E-03  0.32433E-03  0.21712E-03
  0.38278E-03  0.11019E-02  0.20105E-02  0.27494E-02  0.30182E-02  0.27080E-02
  0.19528E-02  0.10618E-02  0.38410E-03  0.20357E-03  0.29002E-03  0.64306E-03
  0.11510E-02  0.16256E-02  0.19577E-02  0.20903E-02  0.19970E-02  0.16807E-02
  0.11896E-02  0.69367E-03  0.78475E-03  0.14197E-02  0.20740E-02  0.25562E-02
  0.27545E-02  0.26034E-02  0.20923E-02  0.12836E-02  0.33267E-03  0.56973E-03
  0.11200E-02  0.84422E-03  0.34169E-03  0.37383E-03  0.11941E-02  0.19776E-02
  0.25792E-02  0.29020E-02  0.29094E-02  0.26201E-02  0.20974E-02  0.14338E-02
  0.75117E-03  0.42374E-03  0.84230E-03  0.12884E-02  0.15684E-02  0.16472E-02
  0.15310E-02  0.12530E-02  0.87545E-03  0.51327E-03  0.34232E-03  0.30670E-03
  0.26795E-03  0.65932E-03  0.12865E-02  0.18190E-02  0.20228E-02  0.18102E-02
  0.12801E-02  0.67231E-03  0.30422E-03  0.30859E-03  0.34205E-03  0.55561E-03
  0.95254E-03  0.13557E-02  0.16547E-02  0.17891E-02  0.17281E-02  0.14681E-02
  0.10491E-02  0.63864E-03  0.77209E-03  0.13724E-02  0.20108E-02  0.25254E-02
  0.28144E-02  0.28117E-02  0.24976E-02  0.19086E-02  0.11411E-02  0.34682E-03
  0.60521E-03  0.23429E-03  0.42354E-03  0.11057E-02  0.18168E-02  0.24303E-02
  0.28465E-02  0.30056E-02  0.28936E-02  0.25408E-02  0.20113E-02  0.13862E-02
  0.76635E-03  0.42379E-03  0.70793E-03  0.10633E-02  0.12746E-02  0.13100E-02
  0.11797E-02  0.92060E-03  0.61501E-03  0.45062E-03  0.54757E-03  0.64972E-03
  0.59755E-03  0.43348E-03  0.44626E-03  0.66774E-03  0.77900E-03  0.67349E-03
  0.45864E-03  0.43559E-03  0.58044E-03  0.62028E-03  0.52184E-03  0.47472E-03
  0.69877E-03  0.10329E-02  0.13106E-02  0.14568E-02  0.14370E-02  0.12429E-02
  0.90802E-03  0.59734E-03  0.76296E-03  0.13113E-02  0.19122E-02  0.24329E-02
  0.27845E-02  0.29002E-02  0.27488E-02  0.23439E-02  0.17448E-02  0.10505E-02
  0.25240E-03  0.47843E-03  0.10170E-02  0.16326E-02  0.22157E-02  0.26733E-02
  0.29378E-02  0.29746E-02  0.27849E-02  0.24056E-02  0.18973E-02  0.13293E-02
  0.78499E-03  0.45823E-03  0.60221E-03  0.85313E-03  0.98976E-03  0.98016E-03
  0.84042E-03  0.62912E-03  0.51286E-03  0.66945E-03  0.93764E-03  0.11457E-02
  0.12279E-02  0.11804E-02  0.10520E-02  0.92644E-03  0.87394E-03  0.91708E-03
  0.10326E-02  0.11507E-02  0.11885E-02  0.10991E-02  0.89138E-03  0.64680E-03
  0.56299E-03  0.74001E-03  0.97530E-03  0.11294E-02  0.11512E-02  0.10263E-02
  0.78251E-03  0.57711E-03  0.75870E-03  0.12428E-02  0.17886E-02  0.22883E-02
  0.26664E-02  0.28599E-02  0.28311E-02  0.25780E-02  0.21344E-02  0.15667E-02
  0.42945E-03  0.84977E-03  0.13725E-02  0.19060E-02  0.23718E-02  0.27046E-02
  0.28617E-02  0.28245E-02  0.26018E-02  0.22301E-02  0.17648E-02  0.12654E-02
  0.80283E-03  0.51318E-03  0.54345E-03  0.68674E-03  0.75429E-03  0.71493E-03
  0.60335E-03  0.53861E-03  0.68828E-03  0.99977E-03  0.13324E-02  0.16085E-02
  0.17938E-02  0.18801E-02  0.18851E-02  0.18517E-02  0.18287E-02  0.18381E-02
  0.18587E-02  0.18423E-02  0.17464E-02  0.15546E-02  0.12776E-02  0.95648E-03
  0.68533E-03  0.61255E-03  0.72893E-03  0.85982E-03  0.90815E-03  0.84432E-03
  0.68932E-03  0.58001E-03  0.75837E-03  0.11705E-02  0.16498E-02  0.21074E-02
  0.24782E-02  0.27055E-02  0.27513E-02  0.26064E-02  0.22879E-02  0.18375E-02
  0.54055E-03  0.98044E-03  0.14687E-02  0.19316E-02  0.23097E-02  0.25591E-02
  0.26544E-02  0.25860E-02  0.23642E-02  0.20230E-02  0.16131E-02  0.11882E-02
  0.80985E-03  0.57030E-03  0.53629E-03  0.59195E-03  0.61105E-03  0.57599E-03
  0.55053E-03  0.65479E-03  0.92201E-03  0.12705E-02  0.16217E-02  0.19290E-02
  0.21683E-02  0.23286E-02  0.24126E-02  0.24407E-02  0.24406E-02  0.24258E-02
  0.23839E-02  0.22880E-02  0.21186E-02  0.18735E-02  0.15658E-02  0.12228E-02
  0.89856E-03  0.68310E-03  0.64244E-03  0.70228E-03  0.74717E-03  0.72400E-03
  0.64140E-03  0.60001E-03  0.75474E-03  0.10892E-02  0.14953E-02  0.18982E-02
  0.22393E-02  0.24663E-02  0.25441E-02  0.24616E-02  0.22271E-02  0.18647E-02
  0.51707E-03  0.93034E-03  0.13772E-02  0.17835E-02  0.21013E-02  0.23005E-02
  0.23660E-02  0.22928E-02  0.20902E-02  0.17901E-02  0.14405E-02  0.10919E-02
  0.79622E-03  0.61161E-03  0.55842E-03  0.56615E-03  0.56525E-03  0.55801E-03
  0.60924E-03  0.78391E-03  0.10692E-02  0.14069E-02  0.17453E-02  0.20501E-02
  0.23003E-02  0.24832E-02  0.25964E-02  0.26501E-02  0.26603E-02  0.26350E-02
  0.25675E-02  0.24428E-02  0.22517E-02  0.19973E-02  0.16935E-02  0.13635E-02
  0.10455E-02  0.79744E-03  0.67364E-03  0.66058E-03  0.68000E-03  0.67292E-03
  0.63381E-03  0.62390E-03  0.74003E-03  0.99430E-03  0.13235E-02  0.16659E-02
  0.19662E-02  0.21747E-02  0.22581E-02  0.22059E-02  0.20220E-02  0.17204E-02
  0.44275E-03  0.79612E-03  0.11955E-02  0.15525E-02  0.18249E-02  0.19911E-02
  0.20426E-02  0.19763E-02  0.18008E-02  0.15460E-02  0.12575E-02  0.98187E-03
  0.76038E-03  0.62619E-03  0.57779E-03  0.56942E-03  0.56481E-03  0.57510E-03
  0.64965E-03  0.82362E-03  0.10792E-02  0.13742E-02  0.16716E-02  0.19445E-02
  0.21731E-02  0.23445E-02  0.24560E-02  0.25136E-02  0.25265E-02  0.24990E-02
  0.24282E-02  0.23063E-02  0.21282E-02  0.18977E-02  0.16285E-02  0.13420E-02
  0.10678E-02  0.84577E-03  0.71386E-03  0.67169E-03  0.67143E-03  0.66609E-03
  0.64425E-03  0.63951E-03  0.71330E-03  0.89170E-03  0.11448E-02  0.14245E-02
  0.16793E-02  0.18610E-02  0.19380E-02  0.19004E-02  0.17500E-02  0.14946E-02
  0.37988E-03  0.64328E-03  0.98959E-03  0.12996E-02  0.15322E-02  0.16723E-02