       #
       # Generated by the Wannier90 code http://www.wannier.org
       # On 13May2024 at 14:14:03 
       #
CRYSTAL
PRIMVEC
   2.7281430   0.0000000   0.0000000
   0.0000000   2.7281430   0.0000000
   0.0000000   0.0000000   3.7789840
CONVVEC
   2.7281430   0.0000000   0.0000000
   0.0000000   2.7281430   0.0000000
   0.0000000   0.0000000   3.7789840
PRIMCOORD
     2  1
Fe      0.0000000   0.0000000   0.0000000
Pt      1.3640715   1.3640715   1.8894920


BEGIN_BLOCK_DATAGRID_3D
3D_field
BEGIN_DATAGRID_3D_UNKNOWN
    54    54    80
   -2.829185   -2.829185   -3.873459
   5.3552437   0.0000000   0.0000000
   0.0000000   5.3552437   0.0000000
   0.0000000   0.0000000   7.4634934
  0.18630E-01  0.23580E-01  0.24691E-01  0.21284E-01  0.14407E-01  0.61124E-02
  0.18319E-02  0.76889E-02  0.11386E-01  0.12954E-01  0.12804E-01  0.11460E-01
  0.94108E-02  0.70448E-02  0.46845E-02  0.26826E-02  0.14859E-02  0.12341E-02
  0.11259E-02  0.10980E-02  0.21731E-02  0.40707E-02  0.58463E-02  0.62521E-02
  0.41583E-02  0.17058E-02  0.76514E-02  0.13084E-01  0.15132E-01  0.12841E-01
  0.73947E-02  0.23535E-02  0.46868E-02  0.64247E-02  0.58210E-02  0.39411E-02
  0.19515E-02  0.68622E-03  0.75462E-03  0.85425E-03  0.11125E-02  0.24518E-02
  0.45259E-02  0.69107E-02  0.92795E-02  0.11322E-01  0.12657E-01  0.12799E-01
  0.11241E-01  0.76068E-02  0.18866E-02  0.57855E-02  0.13812E-01  0.20536E-01
  0.13070E-01  0.16630E-01  0.17649E-01  0.15428E-01  0.10526E-01  0.43683E-02
  0.19174E-02  0.65442E-02  0.95654E-02  0.10842E-01  0.10638E-01  0.93808E-02
  0.75062E-02  0.53672E-02  0.32788E-02  0.17240E-02  0.14989E-02  0.18568E-02
  0.17518E-02  0.11404E-02  0.15100E-02  0.35043E-02  0.55905E-02  0.65150E-02
  0.51945E-02  0.20263E-02  0.49428E-02  0.94427E-02  0.11140E-01  0.91460E-02
  0.47042E-02  0.29277E-02  0.57406E-02  0.67125E-02  0.55511E-02  0.33157E-02
  0.11269E-02  0.80901E-03  0.16036E-02  0.16923E-02  0.11841E-02  0.13356E-02
  0.30301E-02  0.51774E-02  0.73383E-02  0.92209E-02  0.10481E-01  0.10690E-01
  0.94390E-02  0.64952E-02  0.20780E-02  0.42143E-02  0.10154E-01  0.14948E-01
  0.52729E-02  0.68454E-02  0.76466E-02  0.69277E-02  0.46110E-02  0.14870E-02
  0.27529E-02  0.57168E-02  0.77115E-02  0.84883E-02  0.81288E-02  0.69116E-02
  0.51800E-02  0.32706E-02  0.17059E-02  0.17718E-02  0.27456E-02  0.32944E-02
  0.31253E-02  0.22115E-02  0.10065E-02  0.23624E-02  0.46498E-02  0.61307E-02
  0.58451E-02  0.36972E-02  0.23796E-02  0.46852E-02  0.57765E-02  0.44762E-02
  0.27100E-02  0.44697E-02  0.63286E-02  0.62885E-02  0.45551E-02  0.20567E-02
  0.51180E-03  0.21793E-02  0.31481E-02  0.33059E-02  0.26993E-02  0.15645E-02
  0.13326E-02  0.30245E-02  0.49896E-02  0.67465E-02  0.79790E-02  0.83548E-02
  0.76100E-02  0.56884E-02  0.29357E-02  0.21779E-02  0.51138E-02  0.74408E-02
  0.23245E-02  0.23486E-02  0.21967E-02  0.20430E-02  0.18814E-02  0.22773E-02
  0.34893E-02  0.48547E-02  0.57924E-02  0.59948E-02  0.54097E-02  0.41869E-02
  0.26181E-02  0.14213E-02  0.21804E-02  0.36276E-02  0.47249E-02  0.51765E-02
  0.48683E-02  0.37902E-02  0.20654E-02  0.11807E-02  0.32802E-02  0.51374E-02
  0.57569E-02  0.49285E-02  0.33851E-02  0.26186E-02  0.27023E-02  0.28841E-02
  0.40002E-02  0.55262E-02  0.61059E-02  0.51909E-02  0.30717E-02  0.50191E-03
  0.20233E-02  0.38768E-02  0.49764E-02  0.52731E-02  0.47909E-02  0.36445E-02
  0.20977E-02  0.11300E-02  0.24105E-02  0.40344E-02  0.52854E-02  0.58939E-02
  0.57231E-02  0.48384E-02  0.36095E-02  0.29459E-02  0.35773E-02  0.44251E-02
  0.50213E-02  0.61253E-02  0.60589E-02  0.51810E-02  0.41463E-02  0.35098E-02
  0.34285E-02  0.36282E-02  0.37035E-02  0.33708E-02  0.25528E-02  0.14624E-02
  0.14112E-02  0.29190E-02  0.46143E-02  0.60444E-02  0.69576E-02  0.71924E-02
  0.66762E-02  0.54183E-02  0.35253E-02  0.14197E-02  0.19256E-02  0.38623E-02
  0.50288E-02  0.51556E-02  0.45765E-02  0.39774E-02  0.38533E-02  0.42744E-02
  0.50257E-02  0.55363E-02  0.51908E-02  0.37628E-02  0.15010E-02  0.11593E-02
  0.36019E-02  0.55551E-02  0.68197E-02  0.73199E-02  0.70585E-02  0.61154E-02
  0.46547E-02  0.29230E-02  0.13402E-02  0.13492E-02  0.24811E-02  0.33250E-02
  0.36827E-02  0.36334E-02  0.34842E-02  0.37657E-02  0.47801E-02  0.60576E-02
  0.52111E-02  0.65108E-02  0.65952E-02  0.56762E-02  0.43661E-02  0.32343E-02
  0.24882E-02  0.19769E-02  0.14407E-02  0.81153E-03  0.10599E-02  0.24035E-02
  0.40660E-02  0.57891E-02  0.73521E-02  0.85394E-02  0.91715E-02  0.91295E-02
  0.83627E-02  0.68922E-02  0.48342E-02  0.24742E-02  0.11618E-02  0.27783E-02
  0.41962E-02  0.48473E-02  0.48897E-02  0.47255E-02  0.47009E-02  0.48987E-02
  0.51240E-02  0.49983E-02  0.41687E-02  0.25217E-02  0.41109E-03  0.24552E-02
  0.49523E-02  0.70400E-02  0.85048E-02  0.92490E-02  0.92619E-02  0.86017E-02
  0.73917E-02  0.58144E-02  0.40883E-02  0.24400E-02  0.11532E-02  0.95124E-03
  0.15375E-02  0.20480E-02  0.25341E-02  0.33048E-02  0.45371E-02  0.59165E-02
  0.46359E-02  0.54700E-02  0.54423E-02  0.46155E-02  0.33821E-02  0.21473E-02
  0.10984E-02  0.43877E-03  0.11795E-02  0.24065E-02  0.38609E-02  0.54669E-02
  0.71170E-02  0.86705E-02  0.99635E-02  0.10833E-01  0.11144E-01  0.10804E-01
  0.97735E-02  0.80790E-02  0.58379E-02  0.33025E-02  0.11908E-02  0.21842E-02
  0.37928E-02  0.47897E-02  0.52164E-02  0.53254E-02  0.53575E-02  0.53856E-02
  0.52780E-02  0.47788E-02  0.36584E-02  0.18690E-02  0.84547E-03  0.33576E-02
  0.59585E-02  0.82068E-02  0.98837E-02  0.10884E-01  0.11192E-01  0.10852E-01
  0.99598E-02  0.86538E-02  0.70991E-02  0.54605E-02  0.38794E-02  0.24703E-02
  0.13447E-02  0.79936E-03  0.12546E-02  0.21971E-02  0.34006E-02  0.46183E-02
  0.48534E-02  0.49466E-02  0.45358E-02  0.36069E-02  0.23496E-02  0.10438E-02
  0.81561E-03  0.20939E-02  0.35675E-02  0.51454E-02  0.67841E-02  0.84106E-02
  0.99306E-02  0.11236E-01  0.12211E-01  0.12740E-01  0.12723E-01  0.12088E-01
  0.10806E-01  0.89087E-02  0.65049E-02  0.38105E-02  0.13530E-02  0.20249E-02
  0.39303E-02  0.53096E-02  0.61129E-02  0.64867E-02  0.65932E-02  0.64918E-02
  0.61003E-02  0.52505E-02  0.38039E-02  0.17991E-02  0.12533E-02  0.38831E-02
  0.65988E-02  0.89909E-02  0.10860E-01  0.12106E-01  0.12706E-01  0.12693E-01
  0.12142E-01  0.11155E-01  0.98501E-02  0.83421E-02  0.67375E-02  0.51293E-02
  0.35934E-02  0.21892E-02  0.10741E-02  0.12260E-02  0.23914E-02  0.35895E-02
  0.59559E-02  0.53480E-02  0.44072E-02  0.31329E-02  0.16461E-02  0.82400E-03
  0.22785E-02  0.40975E-02  0.59467E-02  0.77545E-02  0.94618E-02  0.11007E-01
  0.12326E-01  0.13349E-01  0.14002E-01  0.14205E-01  0.13883E-01  0.12980E-01
  0.11483E-01  0.94311E-02  0.69175E-02  0.41154E-02  0.14499E-02  0.20567E-02
  0.43090E-02  0.61058E-02  0.73152E-02  0.79827E-02  0.81913E-02  0.79765E-02
  0.72956E-02  0.60643E-02  0.42415E-02  0.19634E-02  0.14646E-02  0.41711E-02
  0.69624E-02  0.94490E-02  0.11465E-01  0.12922E-01  0.13789E-01  0.14082E-01
  0.13859E-01  0.13197E-01  0.12178E-01  0.10875E-01  0.93548E-02  0.76809E-02
  0.59137E-02  0.41163E-02  0.23789E-02  0.11038E-02  0.17613E-02  0.31475E-02
  0.71923E-02  0.60502E-02  0.45894E-02  0.28715E-02  0.11536E-02  0.17309E-02
  0.38502E-02  0.60644E-02  0.81855E-02  0.10114E-01  0.11790E-01  0.13181E-01
  0.14262E-01  0.15002E-01  0.15359E-01  0.15275E-01  0.14695E-01  0.13580E-01
  0.11929E-01  0.97778E-02  0.72082E-02  0.43592E-02  0.15754E-02  0.20209E-02
  0.45136E-02  0.66355E-02  0.81804E-02  0.91021E-02  0.94064E-02  0.91012E-02
  0.81773E-02  0.66295E-02  0.45089E-02  0.20388E-02  0.16320E-02  0.43731E-02
  0.71891E-02  0.97213E-02  0.11831E-01  0.13443E-01  0.14522E-01  0.15075E-01
  0.15143E-01  0.14782E-01  0.14050E-01  0.12990E-01  0.11630E-01  0.99923E-02
  0.81089E-02  0.60398E-02  0.38901E-02  0.18808E-02  0.13323E-02  0.28926E-02
  0.80103E-02  0.64997E-02  0.46271E-02  0.25153E-02  0.97574E-03  0.28547E-02
  0.53860E-02  0.78767E-02  0.10154E-01  0.12109E-01  0.13693E-01  0.14905E-01
  0.15754E-01  0.16239E-01  0.16336E-01  0.16011E-01  0.15232E-01  0.13974E-01
  0.12233E-01  0.10035E-01  0.74521E-02  0.46105E-02  0.17891E-02  0.17713E-02
  0.42989E-02  0.65496E-02  0.82604E-02  0.93227E-02  0.96850E-02  0.93324E-02
  0.82803E-02  0.65822E-02  0.43524E-02  0.18792E-02  0.18280E-02  0.45665E-02
  0.73627E-02  0.99036E-02  0.12059E-01  0.13762E-01  0.14988E-01  0.15745E-01
  0.16058E-01  0.15961E-01  0.15490E-01  0.14666E-01  0.13490E-01  0.11948E-01
  0.10043E-01  0.78197E-02  0.53888E-02  0.29337E-02  0.11730E-02  0.25278E-02
  0.84042E-02  0.66376E-02  0.44690E-02  0.20575E-02  0.13237E-02  0.39450E-02
  0.67626E-02  0.94209E-02  0.11758E-01  0.13677E-01  0.15149E-01  0.16195E-01
  0.16844E-01  0.17108E-01  0.16983E-01  0.16459E-01  0.15528E-01  0.14177E-01
  0.12396E-01  0.10200E-01  0.76565E-02  0.48939E-02  0.21329E-02  0.12860E-02
  0.36067E-02  0.57787E-02  0.74651E-02  0.85327E-02  0.89043E-02  0.85544E-02
  0.75097E-02  0.58497E-02  0.37146E-02  0.14688E-02  0.21114E-02  0.47857E-02
  0.74997E-02  0.10001E-01  0.12158E-01  0.13905E-01  0.15230E-01  0.16144E-01
  0.16662E-01  0.16792E-01  0.16545E-01  0.15924E-01  0.14916E-01  0.13489E-01
  0.11621E-01  0.93389E-02  0.67380E-02  0.39827E-02  0.14535E-02  0.20545E-02
  0.86004E-02  0.66313E-02  0.42303E-02  0.15730E-02  0.18813E-02  0.49112E-02
  0.79268E-02  0.10675E-01  0.13011E-01  0.14862E-01  0.16221E-01  0.17120E-01
  0.17593E-01  0.17665E-01  0.17349E-01  0.16657E-01  0.15603E-01  0.14187E-01
  0.12403E-01  0.10268E-01  0.78541E-02  0.52801E-02  0.27073E-02  0.80521E-03
  0.24309E-02  0.43655E-02  0.58825E-02  0.68476E-02  0.71885E-02  0.68817E-02
  0.59519E-02  0.44743E-02  0.25925E-02  0.98537E-03  0.26071E-02  0.51114E-02
  0.76412E-02  0.10018E-01  0.12121E-01  0.13879E-01  0.15276E-01  0.16319E-01
  0.17009E-01  0.17335E-01  0.17282E-01  0.16836E-01  0.15975E-01  0.14660E-01
  0.12858E-01  0.10575E-01  0.78812E-02  0.49203E-02  0.19505E-02  0.15449E-02
  0.87152E-02  0.65631E-02  0.39464E-02  0.10570E-02  0.24821E-02  0.57640E-02
  0.88994E-02  0.11678E-01  0.13977E-01  0.15746E-01  0.16988E-01  0.17742E-01
  0.18049E-01  0.17946E-01  0.17465E-01  0.16638E-01  0.15493E-01  0.14044E-01
  0.12306E-01  0.10315E-01  0.81438E-02  0.58829E-02  0.36315E-02  0.15293E-02
  0.86723E-03  0.23717E-02  0.36281E-02  0.44265E-02  0.47131E-02  0.44734E-02
  0.37236E-02  0.25228E-02  0.10957E-02  0.14614E-02  0.34621E-02  0.56662E-02
  0.78926E-02  0.10037E-01  0.12005E-01  0.13727E-01  0.15166E-01  0.16307E-01
  0.17137E-01  0.17629E-01  0.17750E-01  0.17467E-01  0.16746E-01  0.15542E-01
  0.13818E-01  0.11567E-01  0.88383E-02  0.57529E-02  0.25176E-02  0.99924E-03
  0.87468E-02  0.64323E-02  0.36145E-02  0.51414E-03  0.30899E-02  0.65033E-02
  0.96785E-02  0.12435E-01  0.14666E-01  0.16334E-01  0.17450E-01  0.18055E-01
  0.18203E-01  0.17945E-01  0.17330E-01  0.16409E-01  0.15223E-01  0.13804E-01
  0.12190E-01  0.10436E-01  0.86050E-02  0.67504E-02  0.49202E-02  0.31779E-02
  0.16216E-02  0.49000E-03  0.86658E-03  0.14385E-02  0.16605E-02  0.15088E-02
  0.10216E-02  0.62577E-03  0.15308E-02  0.30111E-02  0.47081E-02  0.65065E-02
  0.83385E-02  0.10154E-01  0.11899E-01  0.13509E-01  0.14928E-01  0.16118E-01
  0.17045E-01  0.17669E-01  0.17941E-01  0.17810E-01  0.17228E-01  0.16142E-01
  0.14509E-01  0.12318E-01  0.96069E-02  0.64791E-02  0.31121E-02  0.45757E-03
  0.87053E-02  0.62686E-02  0.32962E-02  0.22996E-03  0.36161E-02  0.70630E-02
  0.10209E-01  0.12895E-01  0.15026E-01  0.16572E-01  0.17551E-01  0.18016E-01
  0.18026E-01  0.17643E-01  0.16933E-01  0.15965E-01  0.14801E-01  0.13493E-01
  0.12089E-01  0.10647E-01  0.92140E-02  0.78163E-02  0.64738E-02  0.52238E-02
  0.41232E-02  0.32252E-02  0.25620E-02  0.21508E-02  0.20027E-02  0.21197E-02
  0.24934E-02  0.31133E-02  0.39675E-02  0.50292E-02  0.62491E-02  0.75715E-02
  0.89593E-02  0.10392E-01  0.11839E-01  0.13252E-01  0.14571E-01  0.15744E-01
  0.16720E-01  0.17437E-01  0.17825E-01  0.17821E-01  0.17366E-01  0.16402E-01
  0.14879E-01  0.12778E-01  0.10131E-01  0.70306E-02  0.36379E-02  0.42074E-03
  0.86221E-02  0.61131E-02  0.30640E-02  0.57087E-03  0.39716E-02  0.73796E-02
  0.10448E-01  0.13027E-01  0.15031E-01  0.16440E-01  0.17287E-01  0.17631E-01
  0.17536E-01  0.17065E-01  0.16296E-01  0.15326E-01  0.14244E-01  0.13115E-01
  0.11984E-01  0.10898E-01  0.98930E-02  0.89876E-02  0.81887E-02  0.75046E-02
  0.69412E-02  0.64907E-02  0.61415E-02  0.59019E-02  0.58011E-02  0.58562E-02
  0.60519E-02  0.63613E-02  0.67771E-02  0.73129E-02  0.79784E-02  0.87695E-02
  0.96783E-02  0.10697E-01  0.11803E-01  0.12957E-01  0.14107E-01  0.15204E-01
  0.16181E-01  0.16950E-01  0.17416E-01  0.17502E-01  0.17150E-01  0.16302E-01
  0.14900E-01  0.12914E-01  0.10365E-01  0.73415E-02  0.40009E-02  0.86252E-03
  0.84758E-02  0.59404E-02  0.29051E-02  0.89728E-03  0.41418E-02  0.74459E-02
  0.10396E-01  0.12842E-01  0.14710E-01  0.15989E-01  0.16720E-01  0.16966E-01
  0.16789E-01  0.16257E-01  0.15468E-01  0.14541E-01  0.13586E-01  0.12675E-01
  0.11849E-01  0.11147E-01  0.10600E-01  0.10217E-01  0.99812E-02  0.98533E-02
  0.97839E-02  0.97196E-02  0.96294E-02  0.95306E-02  0.94723E-02  0.94827E-02
  0.95379E-02  0.95923E-02  0.96306E-02  0.96845E-02  0.98078E-02  0.10051E-01
  0.10451E-01  0.11025E-01  0.11762E-01  0.12623E-01  0.13565E-01  0.14537E-01
  0.15469E-01  0.16250E-01  0.16762E-01  0.16913E-01  0.16640E-01  0.15888E-01
  0.14598E-01  0.12733E-01  0.10308E-01  0.74031E-02  0.41849E-02  0.12676E-02
  0.81865E-02  0.56820E-02  0.27577E-02  0.11362E-02  0.41410E-02  0.72694E-02
  0.10055E-01  0.12350E-01  0.14088E-01  0.15259E-01  0.15897E-01  0.16057E-01
  0.15808E-01  0.15239E-01  0.14468E-01  0.13632E-01  0.12843E-01  0.12171E-01
  0.11667E-01  0.11370E-01  0.11299E-01  0.11424E-01  0.11673E-01  0.11960E-01
  0.12215E-01  0.12390E-01  0.12471E-01  0.12479E-01  0.12458E-01  0.12432E-01
  0.12384E-01  0.12274E-01  0.12084E-01  0.11828E-01  0.11553E-01  0.11328E-01
  0.11235E-01  0.11348E-01  0.11691E-01  0.12241E-01  0.12948E-01  0.13758E-01
  0.14595E-01  0.15346E-01  0.15881E-01  0.16085E-01  0.15876E-01  0.15195E-01
  0.13992E-01  0.12242E-01  0.99607E-02  0.72227E-02  0.42007E-02  0.15740E-02
  0.76598E-02  0.52893E-02  0.25947E-02  0.12445E-02  0.39343E-02  0.68234E-02
  0.94074E-02  0.11540E-01  0.13157E-01  0.14239E-01  0.14800E-01  0.14883E-01
  0.14574E-01  0.13995E-01  0.13288E-01  0.12585E-01  0.11986E-01  0.11567E-01
  0.11390E-01  0.11495E-01  0.11858E-01  0.12386E-01  0.12948E-01  0.13447E-01
  0.13841E-01  0.14126E-01  0.14309E-01  0.14401E-01  0.14413E-01  0.14356E-01
  0.14230E-01  0.14026E-01  0.13738E-01  0.13359E-01  0.12890E-01  0.12368E-01
  0.11890E-01  0.11580E-01  0.11532E-01  0.11760E-01  0.12219E-01  0.12838E-01
  0.13536E-01  0.14213E-01  0.14742E-01  0.14987E-01  0.14833E-01  0.14207E-01
  0.13075E-01  0.11432E-01  0.93069E-02  0.67723E-02  0.40080E-02  0.17320E-02
  0.67752E-02  0.47086E-02  0.24020E-02  0.11684E-02  0.34504E-02  0.60633E-02
  0.84425E-02  0.10421E-01  0.11924E-01  0.12920E-01  0.13408E-01  0.13431E-01
  0.13094E-01  0.12545E-01  0.11935E-01  0.11383E-01  0.10980E-01  0.10810E-01
  0.10943E-01  0.11386E-01  0.12056E-01  0.12810E-01  0.13514E-01  0.14094E-01
  0.14526E-01  0.14800E-01  0.14925E-01  0.14943E-01  0.14923E-01  0.14900E-01
  0.14850E-01  0.14715E-01  0.14452E-01  0.14052E-01  0.13519E-01  0.12872E-01
  0.12181E-01  0.11574E-01  0.11194E-01  0.11118E-01  0.11329E-01  0.11749E-01
  0.12290E-01  0.12860E-01  0.13343E-01  0.13599E-01  0.13486E-01  0.12914E-01
  0.11851E-01  0.10312E-01  0.83336E-02  0.60046E-02  0.35329E-02  0.16924E-02
  0.53722E-02  0.38283E-02  0.21193E-02  0.93213E-03  0.26567E-02  0.49671E-02
  0.71685E-02  0.90308E-02  0.10438E-01  0.11349E-01  0.11773E-01  0.11765E-01
  0.11446E-01  0.10968E-01  0.10470E-01  0.10060E-01  0.98354E-02  0.98914E-02
  0.10275E-01  0.10933E-01  0.11734E-01  0.12546E-01  0.13282E-01  0.13853E-01
  0.14103E-01  0.13888E-01  0.13264E-01  0.12571E-01  0.12254E-01  0.12523E-01
  0.13187E-01  0.13809E-01  0.14051E-01  0.13851E-01  0.13343E-01  0.12677E-01
  0.11938E-01  0.11207E-01  0.10614E-01  0.10287E-01  0.10271E-01  0.10510E-01
  0.10904E-01  0.11353E-01  0.11755E-01  0.11978E-01  0.11881E-01  0.11360E-01
  0.10371E-01  0.89172E-02  0.70490E-02  0.48978E-02  0.27411E-02  0.14320E-02
  0.33703E-02  0.25624E-02  0.16781E-02  0.71853E-03  0.16094E-02  0.35639E-02
  0.56092E-02  0.74056E-02  0.87593E-02  0.96113E-02  0.99937E-02  0.99938E-02
  0.97353E-02  0.93526E-02  0.89647E-02  0.86789E-02  0.86082E-02  0.88445E-02
  0.93871E-02  0.10120E-01  0.10900E-01  0.11652E-01  0.12294E-01  0.12525E-01
  0.11802E-01  0.97446E-02  0.67011E-02  0.38794E-02  0.26915E-02  0.37995E-02
  0.65971E-02  0.96555E-02  0.11759E-01  0.12549E-01  0.12397E-01  0.11835E-01
  0.11159E-01  0.10450E-01  0.97806E-02  0.92912E-02  0.90914E-02  0.91738E-02
  0.94401E-02  0.97750E-02  0.10074E-01  0.10229E-01  0.10117E-01  0.96300E-02
  0.86934E-02  0.72862E-02  0.54805E-02  0.34861E-02  0.16719E-02  0.93769E-03
  0.11120E-02  0.11846E-02  0.12156E-02  0.86391E-03  0.53071E-03  0.19738E-02
  0.38448E-02  0.56017E-02  0.69480E-02  0.77858E-02  0.81649E-02  0.82021E-02
  0.80251E-02  0.77480E-02  0.74709E-02  0.73009E-02  0.73545E-02  0.77019E-02
  0.82945E-02  0.89855E-02  0.96587E-02  0.10259E-01  0.10525E-01  0.96577E-02
  0.65043E-02  0.95746E-03  0.75064E-02  0.14321E-01  0.17062E-01  0.14364E-01
  0.75537E-02  0.56056E-03  0.64470E-02  0.96929E-02  0.10650E-01  0.10467E-01
  0.99413E-02  0.93328E-02  0.86976E-02  0.81504E-02  0.78342E-02  0.77906E-02
  0.79416E-02  0.81666E-02  0.83610E-02  0.84342E-02  0.82862E-02  0.78029E-02
  0.68792E-02  0.54796E-02  0.37201E-02  0.19051E-02  0.52049E-03  0.76830E-03
  0.17854E-02  0.15072E-02  0.14332E-02  0.14390E-02  0.92459E-03  0.49397E-03
  0.20886E-02  0.37706E-02  0.51093E-02  0.59562E-02  0.63562E-02  0.64415E-02
  0.63467E-02  0.61769E-02  0.60179E-02  0.59606E-02  0.60958E-02  0.64609E-02
  0.69900E-02  0.75592E-02  0.80878E-02  0.84352E-02  0.79596E-02  0.51852E-02
  0.20346E-02  0.13511E-01  0.27683E-01  0.39636E-01  0.44359E-01  0.39696E-01
  0.27771E-01  0.13576E-01  0.19670E-02  0.52141E-02  0.80870E-02  0.86409E-02
  0.83560E-02  0.78777E-02  0.73499E-02  0.68547E-02  0.65143E-02  0.63892E-02
  0.64332E-02  0.65487E-02  0.66452E-02  0.66459E-02  0.64592E-02  0.59627E-02
  0.50364E-02  0.36569E-02  0.20039E-02  0.60109E-03  0.11305E-02  0.19765E-02
  0.34211E-02  0.28088E-02  0.24096E-02  0.23006E-02  0.18854E-02  0.88628E-03
  0.68494E-03  0.21702E-02  0.34145E-02  0.42263E-02  0.46308E-02  0.47555E-02
  0.47363E-02  0.46742E-02  0.46367E-02  0.46768E-02  0.48365E-02  0.51237E-02
  0.54939E-02  0.58858E-02  0.62422E-02  0.62760E-02  0.49494E-02  0.79201E-03
  0.10253E-01  0.26546E-01  0.45691E-01  0.61499E-01  0.67682E-01  0.61570E-01
  0.45798E-01  0.26635E-01  0.10279E-01  0.73259E-03  0.50632E-02  0.64493E-02
  0.64535E-02  0.61224E-02  0.57508E-02  0.53998E-02  0.51314E-02  0.49854E-02
  0.49440E-02  0.49552E-02  0.49634E-02  0.49078E-02  0.46995E-02  0.42133E-02
  0.33376E-02  0.20834E-02  0.75131E-03  0.10760E-02  0.22383E-02  0.33868E-02
  0.41064E-02  0.37265E-02  0.35035E-02  0.32634E-02  0.26291E-02  0.15659E-02
  0.37408E-03  0.10401E-02  0.20262E-02  0.26877E-02  0.30406E-02  0.31880E-02
  0.32458E-02  0.32947E-02  0.33704E-02  0.34782E-02  0.36125E-02  0.37649E-02
  0.39267E-02  0.40985E-02  0.42458E-02  0.40218E-02  0.23089E-02  0.32006E-02
  0.14053E-01  0.30624E-01  0.49661E-01  0.65175E-01  0.71213E-01  0.65262E-01
  0.49789E-01  0.30731E-01  0.14092E-01  0.31638E-02  0.23969E-02  0.41328E-02
  0.43514E-02  0.41894E-02  0.40089E-02  0.38514E-02  0.37160E-02  0.36052E-02
  0.35154E-02  0.34399E-02  0.33665E-02  0.32626E-02  0.30563E-02  0.26426E-02
  0.19414E-02  0.10002E-02  0.54040E-03  0.15486E-02  0.28109E-02  0.42023E-02
  0.40069E-02  0.41789E-02  0.43298E-02  0.40375E-02  0.31008E-02  0.18024E-02
  0.60853E-03  0.45263E-03  0.10082E-02  0.13835E-02  0.16258E-02  0.18017E-02
  0.19672E-02  0.21456E-02  0.23250E-02  0.24749E-02  0.25663E-02  0.25861E-02
  0.25399E-02  0.24477E-02  0.23158E-02  0.19678E-02  0.81629E-03  0.31435E-02
  0.10243E-01  0.20846E-01  0.32846E-01  0.42548E-01  0.46338E-01  0.42685E-01
  0.33042E-01  0.20998E-01  0.10293E-01  0.31060E-02  0.85708E-03  0.19748E-02
  0.22350E-02  0.22921E-02  0.23490E-02  0.23979E-02  0.24083E-02  0.23607E-02
  0.22543E-02  0.21059E-02  0.19371E-02  0.17575E-02  0.15485E-02  0.12671E-02
  0.88779E-03  0.46239E-03  0.51369E-03  0.14170E-02  0.27571E-02  0.41896E-02
  0.38185E-02  0.43037E-02  0.46377E-02  0.43357E-02  0.32653E-02  0.18306E-02
  0.62150E-03  0.29424E-03  0.49648E-03  0.59106E-03  0.76019E-03  0.10221E-02
  0.13187E-02  0.16067E-02  0.18526E-02  0.20240E-02  0.20937E-02  0.20477E-02
  0.18810E-02  0.15797E-02  0.11283E-02  0.58457E-03  0.50698E-03  0.13284E-02
  0.25382E-02  0.37861E-02  0.45759E-02  0.48961E-02  0.53652E-02  0.59526E-02
  0.57759E-02  0.44981E-02  0.26977E-02  0.12398E-02  0.49397E-03  0.27029E-03
  0.67183E-03  0.11080E-02  0.14284E-02  0.16378E-02  0.17436E-02  0.17387E-02
  0.16247E-02  0.14186E-02  0.11425E-02  0.81776E-03  0.46714E-03  0.14290E-03
  0.22744E-03  0.31901E-03  0.32706E-03  0.11820E-02  0.25799E-02  0.39790E-02
  0.40069E-02  0.41789E-02  0.43298E-02  0.40375E-02  0.31008E-02  0.18024E-02
  0.60853E-03  0.45263E-03  0.10082E-02  0.13835E-02  0.16258E-02  0.18017E-02
  0.19672E-02  0.21456E-02  0.23250E-02  0.24749E-02  0.25663E-02  0.25861E-02
  0.25399E-02  0.24476E-02  0.23157E-02  0.19678E-02  0.81628E-03  0.31435E-02
  0.10243E-01  0.20846E-01  0.32846E-01  0.42548E-01  0.46338E-01  0.42685E-01
  0.33042E-01  0.20998E-01  0.10293E-01  0.31060E-02  0.85708E-03  0.19748E-02
  0.22350E-02  0.22921E-02  0.23490E-02  0.23979E-02  0.24083E-02  0.23607E-02
  0.22543E-02  0.21059E-02  0.19371E-02  0.17575E-02  0.15485E-02  0.12671E-02
  0.88779E-03  0.46239E-03  0.51369E-03  0.14170E-02  0.27571E-02  0.41896E-02
  0.41064E-02  0.37265E-02  0.35034E-02  0.32634E-02  0.26291E-02  0.15659E-02
  0.37408E-03  0.10401E-02  0.20262E-02  0.26877E-02  0.30406E-02  0.31880E-02
  0.32458E-02  0.32947E-02  0.33704E-02  0.34782E-02  0.36125E-02  0.37649E-02
  0.39267E-02  0.40985E-02  0.42458E-02  0.40218E-02  0.23089E-02  0.32006E-02
  0.14053E-01  0.30624E-01  0.49661E-01  0.65175E-01  0.71213E-01  0.65262E-01
  0.49789E-01  0.30731E-01  0.14092E-01  0.31638E-02  0.23969E-02  0.41328E-02
  0.43514E-02  0.41894E-02  0.40089E-02  0.38514E-02  0.37160E-02  0.36052E-02
  0.35154E-02  0.34399E-02  0.33665E-02  0.32626E-02  0.30562E-02  0.26426E-02
  0.19414E-02  0.10002E-02  0.54040E-03  0.15486E-02  0.28109E-02  0.42023E-02
  0.34211E-02  0.28088E-02  0.24096E-02  0.23006E-02  0.18854E-02  0.88628E-03
  0.68494E-03  0.21702E-02  0.34145E-02  0.42263E-02  0.46308E-02  0.47555E-02
  0.47363E-02  0.46742E-02  0.46367E-02  0.46768E-02  0.48365E-02  0.51237E-02
  0.54939E-02  0.58858E-02  0.62422E-02  0.62760E-02  0.49494E-02  0.79201E-03
  0.10253E-01  0.26546E-01  0.45691E-01  0.61499E-01  0.67682E-01  0.61570E-01
  0.45798E-01  0.26635E-01  0.10279E-01  0.73259E-03  0.50632E-02  0.64493E-02
  0.64535E-02  0.61224E-02  0.57508E-02  0.53998E-02  0.51314E-02  0.49854E-02
  0.49440E-02  0.49552E-02  0.49634E-02  0.49078E-02  0.46995E-02  0.42133E-02
  0.33376E-02  0.20834E-02  0.75131E-03  0.10759E-02  0.22383E-02  0.33868E-02
  0.17854E-02  0.15072E-02  0.14332E-02  0.14390E-02  0.92459E-03  0.49397E-03
  0.20886E-02  0.37706E-02  0.51093E-02  0.59562E-02  0.63562E-02  0.64415E-02
  0.63467E-02  0.61769E-02  0.60179E-02  0.59606E-02  0.60958E-02  0.64609E-02
  0.69900E-02  0.75592E-02  0.80878E-02  0.84352E-02  0.79596E-02  0.51852E-02
  0.20346E-02  0.13511E-01  0.27683E-01  0.39636E-01  0.44359E-01  0.39696E-01
  0.27771E-01  0.13576E-01  0.19670E-02  0.52141E-02  0.80870E-02  0.86409E-02
  0.83560E-02  0.78777E-02  0.73499E-02  0.68547E-02  0.65143E-02  0.63892E-02
  0.64332E-02  0.65487E-02  0.66452E-02  0.66459E-02  0.64592E-02  0.59627E-02
  0.50364E-02  0.36569E-02  0.20039E-02  0.60109E-03  0.11305E-02  0.19765E-02
  0.11120E-02  0.11846E-02  0.12156E-02  0.86391E-03  0.53071E-03  0.19738E-02
  0.38448E-02  0.56017E-02  0.69480E-02  0.77858E-02  0.81649E-02  0.82021E-02
  0.80251E-02  0.77480E-02  0.74709E-02  0.73009E-02  0.73545E-02  0.77019E-02
  0.82945E-02  0.89855E-02  0.96587E-02  0.10259E-01  0.10525E-01  0.96577E-02
  0.65043E-02  0.95747E-03  0.75064E-02  0.14321E-01  0.17062E-01  0.14364E-01
  0.75537E-02  0.56056E-03  0.64470E-02  0.96929E-02  0.10650E-01  0.10467E-01
  0.99413E-02  0.93328E-02  0.86976E-02  0.81504E-02  0.78342E-02  0.77906E-02
  0.79416E-02  0.81666E-02  0.83610E-02  0.84341E-02  0.82862E-02  0.78029E-02
  0.68792E-02  0.54796E-02  0.37201E-02  0.19051E-02  0.52049E-03  0.76829E-03
  0.33703E-02  0.25624E-02  0.16781E-02  0.71853E-03  0.16094E-02  0.35639E-02
  0.56092E-02  0.74056E-02  0.87593E-02  0.96113E-02  0.99937E-02  0.99938E-02
  0.97353E-02  0.93526E-02  0.89647E-02  0.86789E-02  0.86082E-02  0.88445E-02
  0.93871E-02  0.10120E-01  0.10900E-01  0.11652E-01  0.12294E-01  0.12525E-01
  0.11802E-01  0.97446E-02  0.67011E-02  0.38794E-02  0.26915E-02  0.37995E-02
  0.65971E-02  0.96555E-02  0.11759E-01  0.12549E-01  0.12397E-01  0.11835E-01
  0.11159E-01  0.10450E-01  0.97806E-02  0.92912E-02  0.90914E-02  0.91738E-02
  0.94401E-02  0.97749E-02  0.10074E-01  0.10229E-01  0.10117E-01  0.96300E-02
  0.86933E-02  0.72862E-02  0.54805E-02  0.34861E-02  0.16719E-02  0.93770E-03
  0.53722E-02  0.38283E-02  0.21193E-02  0.93213E-03  0.26567E-02  0.49671E-02
  0.71685E-02  0.90308E-02  0.10438E-01  0.11349E-01  0.11773E-01  0.11765E-01
  0.11446E-01  0.10968E-01  0.10470E-01  0.10060E-01  0.98354E-02  0.98914E-02
  0.10275E-01  0.10933E-01  0.11734E-01  0.12546E-01  0.13282E-01  0.13853E-01
  0.14103E-01  0.13888E-01  0.13264E-01  0.12571E-01  0.12254E-01  0.12523E-01
  0.13187E-01  0.13809E-01  0.14051E-01  0.13851E-01  0.13343E-01  0.12677E-01
  0.11938E-01  0.11207E-01  0.10614E-01  0.10287E-01  0.10271E-01  0.10510E-01
  0.10904E-01  0.11353E-01  0.11755E-01  0.11978E-01  0.11881E-01  0.11360E-01
  0.10371E-01  0.89172E-02  0.70490E-02  0.48978E-02  0.27411E-02  0.14320E-02
  0.67752E-02  0.47086E-02  0.24020E-02  0.11684E-02  0.34504E-02  0.60633E-02
  0.84425E-02  0.10421E-01  0.11924E-01  0.12920E-01  0.13408E-01  0.13431E-01
  0.13094E-01  0.12545E-01  0.11935E-01  0.11383E-01  0.10980E-01  0.10810E-01
  0.10943E-01  0.11386E-01  0.12056E-01  0.12810E-01  0.13514E-01  0.14094E-01
  0.14526E-01  0.14800E-01  0.14925E-01  0.14943E-01  0.14923E-01  0.14900E-01
  0.14850E-01  0.14715E-01  0.14452E-01  0.14052E-01  0.13519E-01  0.12872E-01
  0.12181E-01  0.11574E-01  0.11194E-01  0.11118E-01  0.11329E-01  0.11749E-01
  0.12290E-01  0.12860E-01  0.13343E-01  0.13599E-01  0.13486E-01  0.12914E-01
  0.11851E-01  0.10312E-01  0.83336E-02  0.60046E-02  0.35329E-02  0.16924E-02
  0.76598E-02  0.52893E-02  0.25947E-02  0.12445E-02  0.39343E-02  0.68234E-02
  0.94074E-02  0.11540E-01  0.13157E-01  0.14239E-01  0.14800E-01  0.14883E-01
  0.14574E-01  0.13995E-01  0.13288E-01  0.12585E-01  0.11986E-01  0.11567E-01
  0.11390E-01  0.11494E-01  0.11858E-01  0.12386E-01  0.12948E-01  0.13447E-01
  0.13841E-01  0.14126E-01  0.14309E-01  0.14401E-01  0.14413E-01  0.14356E-01
  0.14230E-01  0.14026E-01  0.13738E-01  0.13359E-01  0.12890E-01  0.12368E-01
  0.11890E-01  0.11580E-01  0.11532E-01  0.11760E-01  0.12219E-01  0.12838E-01
  0.13536E-01  0.14213E-01  0.14742E-01  0.14987E-01  0.14833E-01  0.14207E-01
  0.13075E-01  0.11432E-01  0.93069E-02  0.67723E-02  0.40080E-02  0.17320E-02
  0.81865E-02  0.56820E-02  0.27577E-02  0.11362E-02  0.41410E-02  0.72694E-02
  0.10055E-01  0.12350E-01  0.14088E-01  0.15259E-01  0.15897E-01  0.16057E-01
  0.15808E-01  0.15239E-01  0.14468E-01  0.13632E-01  0.12843E-01  0.12171E-01
  0.11667E-01  0.11370E-01  0.11299E-01  0.11424E-01  0.11673E-01  0.11960E-01
  0.12215E-01  0.12390E-01  0.12471E-01  0.12479E-01  0.12458E-01  0.12432E-01
  0.12384E-01  0.12274E-01  0.12084E-01  0.11828E-01  0.11553E-01  0.11328E-01
  0.11235E-01  0.11348E-01  0.11691E-01  0.12241E-01  0.12948E-01  0.13758E-01
  0.14595E-01  0.15346E-01  0.15881E-01  0.16085E-01  0.15876E-01  0.15195E-01
  0.13992E-01  0.12242E-01  0.99607E-02  0.72227E-02  0.42007E-02  0.15740E-02
  0.84758E-02  0.59404E-02  0.29051E-02  0.89728E-03  0.41418E-02  0.74459E-02
  0.10396E-01  0.12842E-01  0.14710E-01  0.15989E-01  0.16720E-01  0.16966E-01
  0.16789E-01  0.16257E-01  0.15468E-01  0.14541E-01  0.13586E-01  0.12675E-01
  0.11849E-01  0.11147E-01  0.10600E-01  0.10217E-01  0.99812E-02  0.98533E-02
  0.97839E-02  0.97196E-02  0.96294E-02  0.95306E-02  0.94723E-02  0.94827E-02
  0.95379E-02  0.95923E-02  0.96306E-02  0.96845E-02  0.98078E-02  0.10051E-01
  0.10451E-01  0.11025E-01  0.11762E-01  0.12623E-01  0.13565E-01  0.14537E-01
  0.15469E-01  0.16250E-01  0.16762E-01  0.16913E-01  0.16640E-01  0.15888E-01
  0.14598E-01  0.12733E-01  0.10308E-01  0.74031E-02  0.41849E-02  0.12676E-02
  0.86221E-02  0.61131E-02  0.30640E-02  0.57087E-03  0.39716E-02  0.73796E-02
  0.10448E-01  0.13027E-01  0.15031E-01  0.16440E-01  0.17287E-01  0.17631E-01
  0.17536E-01  0.17065E-01  0.16296E-01  0.15326E-01  0.14244E-01  0.13115E-01
  0.11984E-01  0.10898E-01  0.98930E-02  0.89876E-02  0.81887E-02  0.75046E-02
  0.69412E-02  0.64907E-02  0.61415E-02  0.59019E-02  0.58011E-02  0.58562E-02
  0.60519E-02  0.63613E-02  0.67771E-02  0.73129E-02  0.79784E-02  0.87695E-02
  0.96783E-02  0.10697E-01  0.11803E-01  0.12957E-01  0.14107E-01  0.15204E-01
  0.16181E-01  0.16950E-01  0.17416E-01  0.17502E-01  0.17150E-01  0.16302E-01
  0.14900E-01  0.12914E-01  0.10365E-01  0.73415E-02  0.40009E-02  0.86252E-03
  0.87053E-02  0.62686E-02  0.32962E-02  0.22996E-03  0.36161E-02  0.70630E-02