 
             +---------------------------------------------------+
             |                                                   |
             |                   WANNIER90                       |
             |                                                   |
             +---------------------------------------------------+
             |                                                   |
             |        Welcome to the Maximally-Localized         |
             |        Generalized Wannier Functions code         |
             |            http://www.wannier.org                 |
             |                                                   |
             |                                                   |
             |  Wannier90 Developer Group:                       |
             |    Giovanni Pizzi    (EPFL)                       |
             |    Valerio Vitale    (Cambridge)                  |
             |    David Vanderbilt  (Rutgers University)         |
             |    Nicola Marzari    (EPFL)                       |
             |    Ivo Souza         (Universidad del Pais Vasco) |
             |    Arash A. Mostofi  (Imperial College London)    |
             |    Jonathan R. Yates (University of Oxford)       |
             |                                                   |
             |  For the full list of Wannier90 3.x authors,      |
             |  please check the code documentation and the      |
             |  README on the GitHub page of the code            |
             |                                                   |
             |                                                   |
             |  Please cite                                      |
             |                                                   |
             |  [ref] "Wannier90 as a community code:            |
             |        new features and applications",            |
             |        G. Pizzi et al., J. Phys. Cond. Matt. 32,  |
             |        165902 (2020).                             |
             |        http://doi.org/10.1088/1361-648X/ab51ff    |
             |                                                   |
             |  in any publications arising from the use of      |
             |  this code. For the method please cite            |
             |                                                   |
             |  [ref] "Maximally Localized Generalised Wannier   |
             |         Functions for Composite Energy Bands"     |
             |         N. Marzari and D. Vanderbilt              |
             |         Phys. Rev. B 56 12847 (1997)              |
             |                                                   |
             |  [ref] "Maximally Localized Wannier Functions     |
             |         for Entangled Energy Bands"               |
             |         I. Souza, N. Marzari and D. Vanderbilt    |
             |         Phys. Rev. B 65 035109 (2001)             |
             |                                                   |
             |                                                   |
             | Copyright (c) 1996-2020                           |
             |        The Wannier90 Developer Group and          |
             |        individual contributors                    |
             |                                                   |
             |      Release: 3.1.0        5th March    2020      |
             |                                                   |
             | This program is free software; you can            |
             | redistribute it and/or modify it under the terms  |
             | of the GNU General Public License as published by |
             | the Free Software Foundation; either version 2 of |
             | the License, or (at your option) any later version|
             |                                                   |
             | This program is distributed in the hope that it   |
             | will be useful, but WITHOUT ANY WARRANTY; without |
             | even the implied warranty of MERCHANTABILITY or   |
             | FITNESS FOR A PARTICULAR PURPOSE. See the GNU     |
             | General Public License for more details.          |
             |                                                   |
             | You should have received a copy of the GNU General|
             | Public License along with this program; if not,   |
             | write to the Free Software Foundation, Inc.,      |
             | 675 Mass Ave, Cambridge, MA 02139, USA.           |
             |                                                   |
             +---------------------------------------------------+
             |    Execution started on 13May2024 at 14:11:13     |
             +---------------------------------------------------+
 
 ******************************************************************************
 * -> Using CODATA 2006 constant values                                       *
 *    (http://physics.nist.gov/cuu/Constants/index.html)                      *
 * -> Using Bohr value from CODATA                                            *
 ******************************************************************************
 

 Running in parallel on  22 CPUs

 
                                    ------
                                    SYSTEM
                                    ------
 
                              Lattice Vectors (Ang)
                    a_1     2.728143   0.000000   0.000000
                    a_2     0.000000   2.728143   0.000000
                    a_3     0.000000   0.000000   3.778984
 
                   Unit Cell Volume:      28.12609  (Ang^3)
 
                        Reciprocal-Space Vectors (Ang^-1)
                    b_1     2.303100   0.000000   0.000000
                    b_2     0.000000   2.303100   0.000000
                    b_3     0.000000   0.000000   1.662665
  
 *----------------------------------------------------------------------------*
 |   Site       Fractional Coordinate          Cartesian Coordinate (Ang)     |
 +----------------------------------------------------------------------------+
 | Fe   1   0.00000   0.00000   0.00000   |    0.00000   0.00000   0.00000    |
 | Pt   1   0.50000   0.50000   0.50000   |    1.36407   1.36407   1.88949    |
 *----------------------------------------------------------------------------*
                                ------------
                                K-POINT GRID
                                ------------
  
             Grid size =  9 x  9 x  6      Total points =  486
  
  
 *---------------------------------- MAIN ------------------------------------*
 |  Number of Wannier Functions               :                36             |
 |  Number of Objective Wannier Functions     :                36             |
 |  Number of input Bloch states              :                90             |
 |  Output verbosity (1=low, 5=high)          :                 1             |
 |  Timing Level (1=low, 5=high)              :                 1             |
 |  Optimisation (0=memory, 3=speed)          :                 3             |
 |  Length Unit                               :               Ang             |
 |  Post-processing setup (write *.nnkp)      :                 F             |
 |  Using Gamma-only branch of algorithms     :                 F             |
 |  Wavefunction (UNK) file-type              :       unformatted             |
 |  Wavefunction spin channel                 :                up             |
 *----------------------------------------------------------------------------*
 *------------------------------- WANNIERISE ---------------------------------*
 |  Total number of iterations                :                 0             |
 |  Number of CG steps before reset           :                 5             |
 |  Trial step length for line search         :             2.000             |
 |  Convergence tolerence                     :         0.100E-09             |
 |  Convergence window                        :                -1             |
 |  Iterations between writing output         :                 1             |
 |  Iterations between backing up to disk     :               100             |
 |  Write r^2_nm to file                      :                 F             |
 |  Write xyz WF centres to file              :                 F             |
 |  Write on-site energies <0n|H|0n> to file  :                 F             |
 |  Use guiding centre to control phases      :                 F             |
 |  Use phases for initial projections        :                 F             |
 *----------------------------------------------------------------------------*
 *------------------------------- DISENTANGLE --------------------------------*
 |  Using band disentanglement                :                 T             |
 |  Total number of iterations                :               200             |
 |  Mixing ratio                              :             0.500             |
 |  Convergence tolerence                     :         1.000E-10             |
 |  Convergence window                        :                 3             |
 *----------------------------------------------------------------------------*
 *-------------------------------- PLOTTING ----------------------------------*
 |  Plotting Wannier functions                :                 T             |
 |   Size of supercell for plotting           :     2x    2x    2             |
 |   Plotting mode (molecule or crystal)      :           crystal             |
 |   Plotting mode for spinor WFs             :             total             |
 |   Include phase for spinor WFs             :                 T             |
 |   Plotting format                          :          xcrysden             |
 *----------------------------------------------------------------------------*
 |  Plotting Hamiltonian in WF basis          :                 T             |
 *----------------------------------------------------------------------------*
 Time to read parameters        0.056 (sec)

 *---------------------------------- K-MESH ----------------------------------*
 +----------------------------------------------------------------------------+
 |                    Distance to Nearest-Neighbour Shells                    |
 |                    ------------------------------------                    |
 |          Shell             Distance (Ang^-1)          Multiplicity         |
 |          -----             -----------------          ------------         |
 |             1                   0.255900                      4            |
 |             2                   0.277111                      2            |
 |             3                   0.361897                      4            |
 |             4                   0.377194                      8            |
 |             5                   0.455807                      8            |
 |             6                   0.511800                      4            |
 |             7                   0.554222                      2            |
 |             8                   0.572210                      8            |
 |             9                   0.582005                      8            |
 |            10                   0.610448                      8            |
 |            11                   0.635779                     16            |
 |            12                   0.661915                      8            |
 |            13                   0.723794                      4            |
 |            14                   0.754388                      8            |
 |            15                   0.767700                      4            |
 |            16                   0.775028                      8            |
 |            17                   0.796609                     16            |
 |            18                   0.809227                      8            |
 |            19                   0.816182                      8            |
 |            20                   0.831333                      2            |
 |            21                   0.855359                     16            |
 |            22                   0.869827                      8            |
 |            23                   0.906688                      8            |
 |            24                   0.911614                      8            |
 |            25                   0.922660                      8            |
 |            26                   0.946850                      8            |
 |            27                   0.963376                     16            |
 |            28                   0.976244                      8            |
 |            29                   0.980821                     16            |
 |            30                   1.009226                     16            |
 |            31                   1.023600                      4            |
 |            32                   1.055103                      8            |
 |            33                   1.060447                      8            |
 |            34                   1.076320                     16            |
 |            35                   1.085692                      4            |
 |            36                   1.090886                     16            |
 +----------------------------------------------------------------------------+
 | The b-vectors are chosen automatically                                     |
 | The following shells are used:   1,  2                                     |
 +----------------------------------------------------------------------------+
 |                        Shell   # Nearest-Neighbours                        |
 |                        -----   --------------------                        |
 |                          1               4                                 |
 |                          2               2                                 |
 +----------------------------------------------------------------------------+
 | Completeness relation is fully satisfied [Eq. (B1), PRB 56, 12847 (1997)]  |
 +----------------------------------------------------------------------------+
 |                  b_k Vectors (Ang^-1) and Weights (Ang^2)                  |
 |                  ----------------------------------------                  |
 |            No.         b_k(x)      b_k(y)      b_k(z)        w_b           |
 |            ---        --------------------------------     --------        |
 |             1         0.000000    0.255900    0.000000     7.635361        |
 |             2         0.000000   -0.255900    0.000000     7.635361        |
 |             3         0.255900    0.000000    0.000000     7.635361        |
 |             4        -0.255900    0.000000    0.000000     7.635361        |
 |             5         0.000000    0.000000    0.277111     6.511228        |
 |             6         0.000000    0.000000   -0.277111     6.511228        |
 +----------------------------------------------------------------------------+
 |                           b_k Directions (Ang^-1)                          |
 |                           -----------------------                          |
 |            No.           x           y           z                         |
 |            ---        --------------------------------                     |
 |             1         0.000000    0.255900    0.000000                     |
 |             2         0.255900    0.000000    0.000000                     |
 |             3         0.000000    0.000000    0.277111                     |
 +----------------------------------------------------------------------------+
  
 Time to get kmesh              0.243 (sec)
 *============================================================================*
 |                              MEMORY ESTIMATE                               |
 |         Maximum RAM allocated during each phase of the calculation         |
 *============================================================================*
 |                        Disentanglement          539.76 Mb                  |
 |                            Wannierise:          182.44 Mb                  |
 |                          plot_wannier:          182.44 Mb                  |
 *----------------------------------------------------------------------------*
  
 Starting a new Wannier90 calculation ...


 Reading overlaps from pwscf.mmn    :  Created on 13May2024 at 13:49:50

 Reading projections from pwscf.amn :  Created on 13May2024 at 13:38: 0

 Time to read overlaps         16.324 (sec)

 *------------------------------- DISENTANGLE --------------------------------*
 +----------------------------------------------------------------------------+
 |                              Energy  Windows                               |
 |                              ---------------                               |
 |                   Outer:    7.50058  to   80.47300  (eV)                   |
 |                   Inner: **********  to   20.96270  (eV)                   |
 +----------------------------------------------------------------------------+
   Number of target bands to extract:   36

                   Unitarised projection of Wannier functions                  
                   ------------------------------------------                  
   A_mn = <psi_m|g_n> --> S = A.A^+ --> U = S^-1/2.A
   In dis_project... done
   Using an inner window (linner = T)
   In dis_proj_froz... done

                   Extraction of optimally-connected subspace                  
                   ------------------------------------------                  
 +---------------------------------------------------------------------+<-- DIS
 |  Iter     Omega_I(i-1)      Omega_I(i)      Delta (frac.)    Time   |<-- DIS
 +---------------------------------------------------------------------+<-- DIS
       1      27.32891991      25.42810400       7.475E-02      0.00    <-- DIS
       2      26.19669977      24.90908803       5.169E-02      0.33    <-- DIS
       3      25.48741849      24.55382391       3.802E-02      0.65    <-- DIS
       4      24.97021189      24.28403580       2.826E-02      0.97    <-- DIS
       5      24.58714717      24.07098700       2.144E-02      1.29    <-- DIS
       6      24.29661757      23.89815977       1.667E-02      1.61    <-- DIS
       7      24.07053299      23.75501725       1.328E-02      1.93    <-- DIS
       8      23.89018959      23.63447648       1.082E-02      2.26    <-- DIS
       9      23.74308453      23.53158552       8.988E-03      2.58    <-- DIS
      10      23.62074682      23.44276758       7.592E-03      2.91    <-- DIS
      11      23.51732573      23.36536689       6.504E-03      3.23    <-- DIS
      12      23.42868821      23.29736469       5.637E-03      3.56    <-- DIS
      13      23.35184410      23.23719539       4.934E-03      3.88    <-- DIS
      14      23.28457812      23.18362381       4.355E-03      4.21    <-- DIS
      15      23.22521173      23.13566095       3.871E-03      4.53    <-- DIS
      16      23.17244669      23.09250469       3.462E-03      4.85    <-- DIS
      17      23.12526027      23.05349722       3.113E-03      5.17    <-- DIS
      18      23.08283375      23.01809373       2.813E-03      5.49    <-- DIS
      19      23.04450246      22.98583907       2.552E-03      5.81    <-- DIS
      20      23.00972029      22.95635007       2.325E-03      6.13    <-- DIS
      21      22.97803376      22.92930189       2.125E-03      6.46    <-- DIS
      22      22.94906286      22.90441742       1.949E-03      6.78    <-- DIS
      23      22.92248659      22.88145892       1.793E-03      7.10    <-- DIS
      24      22.89803189      22.86022136       1.654E-03      7.42    <-- DIS
      25      22.87546495      22.84052705       1.530E-03      7.75    <-- DIS
      26      22.85458447      22.82222135       1.418E-03      8.07    <-- DIS
      27      22.83521621      22.80516907       1.318E-03      8.39    <-- DIS
      28      22.81720866      22.78925160       1.227E-03      8.72    <-- DIS
      29      22.80042948      22.77436451       1.144E-03      9.04    <-- DIS
      30      22.78476262      22.76041551       1.070E-03      9.36    <-- DIS
      31      22.77010591      22.74732277       1.002E-03      9.68    <-- DIS
      32      22.75636911      22.73501356       9.393E-04     10.01    <-- DIS
      33      22.74347220      22.72342299       8.823E-04     10.33    <-- DIS
      34      22.73134409      22.71249306       8.300E-04     10.65    <-- DIS
      35      22.71992132      22.70217175       7.818E-04     10.97    <-- DIS
      36      22.70914718      22.69241229       7.375E-04     11.30    <-- DIS
      37      22.69897079      22.68317255       6.965E-04     11.62    <-- DIS
      38      22.68934641      22.67441446       6.585E-04     11.94    <-- DIS
      39      22.68023283      22.66610357       6.234E-04     12.26    <-- DIS
      40      22.67159280      22.65820861       5.907E-04     12.58    <-- DIS
      41      22.66339260      22.65070117       5.603E-04     12.90    <-- DIS
      42      22.65560161      22.64355535       5.320E-04     13.22    <-- DIS
      43      22.64819200      22.63674750       5.056E-04     13.54    <-- DIS
      44      22.64113840      22.63025602       4.809E-04     13.87    <-- DIS
      45      22.63441765      22.62406108       4.578E-04     14.19    <-- DIS
      46      22.62800855      22.61814450       4.361E-04     14.51    <-- DIS
      47      22.62189167      22.61248955       4.158E-04     14.83    <-- DIS
      48      22.61604916      22.60708083       3.967E-04     15.16    <-- DIS
      49      22.61046462      22.60190413       3.788E-04     15.48    <-- DIS
      50      22.60512292      22.59694630       3.618E-04     15.80    <-- DIS
      51      22.60001009      22.59219519       3.459E-04     16.12    <-- DIS
      52      22.59511322      22.58763951       3.309E-04     16.44    <-- DIS
      53      22.59042037      22.58326881       3.167E-04     16.77    <-- DIS
      54      22.58592045      22.57907335       3.033E-04     17.09    <-- DIS
      55      22.58160316      22.57504406       2.905E-04     17.41    <-- DIS
      56      22.57745892      22.57117251       2.785E-04     17.73    <-- DIS
      57      22.57347881      22.56745079       2.671E-04     18.05    <-- DIS
      58      22.56965452      22.56387154       2.563E-04     18.38    <-- DIS
      59      22.56597828      22.56042787       2.460E-04     18.70    <-- DIS
      60      22.56244281      22.55711329       2.363E-04     19.02    <-- DIS
      61      22.55904132      22.55392174       2.270E-04     19.34    <-- DIS
      62      22.55576742      22.55084752       2.182E-04     19.67    <-- DIS
      63      22.55261514      22.54788528       2.098E-04     19.99    <-- DIS
      64      22.54957885      22.54502997       2.018E-04     20.31    <-- DIS
      65      22.54665326      22.54227683       1.941E-04     20.63    <-- DIS
      66      22.54383339      22.53962139       1.869E-04     20.96    <-- DIS
      67      22.54111455      22.53705940       1.799E-04     21.28    <-- DIS
      68      22.53849231      22.53458688       1.733E-04     21.60    <-- DIS
      69      22.53596249      22.53220003       1.670E-04     21.92    <-- DIS
      70      22.53352113      22.52989527       1.609E-04     22.25    <-- DIS
      71      22.53116450      22.52766921       1.552E-04     22.57    <-- DIS
      72      22.52888905      22.52551863       1.496E-04     22.89    <-- DIS
      73      22.52669142      22.52344047       1.443E-04     23.21    <-- DIS
      74      22.52456844      22.52143184       1.393E-04     23.54    <-- DIS
      75      22.52251708      22.51948998       1.344E-04     23.86    <-- DIS
      76      22.52053447      22.51761226       1.298E-04     24.18    <-- DIS
      77      22.51861789      22.51579618       1.253E-04     24.50    <-- DIS
      78      22.51676473      22.51403938       1.211E-04     24.82    <-- DIS
      79      22.51497253      22.51233958       1.170E-04     25.14    <-- DIS
      80      22.51323894      22.51069463       1.130E-04     25.46    <-- DIS
      81      22.51156171      22.50910245       1.093E-04     25.78    <-- DIS
      82      22.50993870      22.50756110       1.056E-04     26.10    <-- DIS
      83      22.50836787      22.50606868       1.022E-04     26.42    <-- DIS
      84      22.50684728      22.50462340       9.882E-05     26.74    <-- DIS
      85      22.50537506      22.50322354       9.561E-05     27.06    <-- DIS
      86      22.50394944      22.50186746       9.252E-05     27.38    <-- DIS
      87      22.50256871      22.50055359       8.956E-05     27.71    <-- DIS
      88      22.50123125      22.49928042       8.671E-05     28.03    <-- DIS
      89      22.49993550      22.49804650       8.396E-05     28.35    <-- DIS
      90      22.49867997      22.49685047       8.132E-05     28.67    <-- DIS
      91      22.49746323      22.49569098       7.878E-05     29.00    <-- DIS
      92      22.49628391      22.49456678       7.634E-05     29.32    <-- DIS
      93      22.49514070      22.49347664       7.398E-05     29.64    <-- DIS
      94      22.49403234      22.49241939       7.171E-05     29.96    <-- DIS
      95      22.49295763      22.49139390       6.953E-05     30.29    <-- DIS
      96      22.49191540      22.49039911       6.742E-05     30.61    <-- DIS
      97      22.49090455      22.48943396       6.539E-05     30.93    <-- DIS
      98      22.48992400      22.48849747       6.343E-05     31.25    <-- DIS
      99      22.48897272      22.48758868       6.155E-05     31.57    <-- DIS
     100      22.48804974      22.48670667       5.973E-05     31.89    <-- DIS
     101      22.48715410      22.48585054       5.797E-05     32.21    <-- DIS
     102      22.48628489      22.48501945       5.628E-05     32.53    <-- DIS
     103      22.48544124      22.48421258       5.465E-05     32.85    <-- DIS
     104      22.48462230      22.48342914       5.307E-05     33.18    <-- DIS
     105      22.48382725      22.48266836       5.155E-05     33.50    <-- DIS
     106      22.48305532      22.48192952       5.008E-05     33.82    <-- DIS
     107      22.48230576      22.48121190       4.866E-05     34.14    <-- DIS
     108      22.48157783      22.48051483       4.729E-05     34.47    <-- DIS
     109      22.48087085      22.47983766       4.596E-05     34.79    <-- DIS
     110      22.48018414      22.47917975       4.468E-05     35.11    <-- DIS
     111      22.47951704      22.47854048       4.344E-05     35.43    <-- DIS
     112      22.47886894      22.47791929       4.225E-05     35.76    <-- DIS
     113      22.47823923      22.47731559       4.109E-05     36.08    <-- DIS
     114      22.47762733      22.47672884       3.997E-05     36.40    <-- DIS
     115      22.47703269      22.47615851       3.889E-05     36.72    <-- DIS
     116      22.47645475      22.47560409       3.785E-05     37.05    <-- DIS
     117      22.47589301      22.47506510       3.684E-05     37.37    <-- DIS
     118      22.47534695      22.47454106       3.586E-05     37.69    <-- DIS
     119      22.47481608      22.47403150       3.491E-05     38.01    <-- DIS
     120      22.47429995      22.47353599       3.399E-05     38.33    <-- DIS
     121      22.47379810      22.47305410       3.311E-05     38.65    <-- DIS
     122      22.47331009      22.47258542       3.225E-05     38.97    <-- DIS
     123      22.47283549      22.47212954       3.141E-05     39.29    <-- DIS
     124      22.47237391      22.47168608       3.061E-05     39.62    <-- DIS
     125      22.47192494      22.47125467       2.983E-05     39.94    <-- DIS
     126      22.47148820      22.47083495       2.907E-05     40.26    <-- DIS
     127      22.47106333      22.47042656       2.834E-05     40.59    <-- DIS
     128      22.47064997      22.47002918       2.763E-05     40.91    <-- DIS
     129      22.47024778      22.46964247       2.694E-05     41.23    <-- DIS
     130      22.46985642      22.46926613       2.627E-05     41.55    <-- DIS
     131      22.46947557      22.46889984       2.562E-05     41.87    <-- DIS
     132      22.46910492      22.46854330       2.500E-05     42.19    <-- DIS
     133      22.46874417      22.46819625       2.439E-05     42.52    <-- DIS
     134      22.46839304      22.46785839       2.380E-05     42.84    <-- DIS
     135      22.46805122      22.46752946       2.322E-05     43.16    <-- DIS
     136      22.46771847      22.46720921       2.267E-05     43.48    <-- DIS
     137      22.46739450      22.46689738       2.213E-05     43.80    <-- DIS
     138      22.46707907      22.46659372       2.160E-05     44.13    <-- DIS
     139      22.46677192      22.46629801       2.109E-05     44.45    <-- DIS
     140      22.46647283      22.46601002       2.060E-05     44.77    <-- DIS
     141      22.46618155      22.46572952       2.012E-05     45.09    <-- DIS
     142      22.46589786      22.46545631       1.965E-05     45.42    <-- DIS
     143      22.46562155      22.46519017       1.920E-05     45.74    <-- DIS
     144      22.46535241      22.46493091       1.876E-05     46.06    <-- DIS
     145      22.46509022      22.46467832       1.834E-05     46.38    <-- DIS
     146      22.46483480      22.46443224       1.792E-05     46.70    <-- DIS
     147      22.46458596      22.46419246       1.752E-05     47.03    <-- DIS
     148      22.46434350      22.46395881       1.712E-05     47.35    <-- DIS
     149      22.46410724      22.46373113       1.674E-05     47.67    <-- DIS
     150      22.46387703      22.46350925       1.637E-05     47.99    <-- DIS
     151      22.46365267      22.46329300       1.601E-05     48.32    <-- DIS
     152      22.46343402      22.46308223       1.566E-05     48.64    <-- DIS
     153      22.46322091      22.46287679       1.532E-05     48.96    <-- DIS
     154      22.46301319      22.46267653       1.499E-05     49.29    <-- DIS
     155      22.46281071      22.46248131       1.466E-05     49.61    <-- DIS
     156      22.46261333      22.46229099       1.435E-05     49.93    <-- DIS
     157      22.46242090      22.46210544       1.404E-05     50.25    <-- DIS
     158      22.46223329      22.46192452       1.375E-05     50.58    <-- DIS
     159      22.46205036      22.46174812       1.346E-05     50.90    <-- DIS
     160      22.46187200      22.46157610       1.317E-05     51.22    <-- DIS
     161      22.46169807      22.46140835       1.290E-05     51.54    <-- DIS
     162      22.46152846      22.46124476       1.263E-05     51.87    <-- DIS
     163      22.46136304      22.46108520       1.237E-05     52.19    <-- DIS
     164      22.46120171      22.46092958       1.212E-05     52.51    <-- DIS
     165      22.46104435      22.46077779       1.187E-05     52.83    <-- DIS
     166      22.46089086      22.46062973       1.163E-05     53.15    <-- DIS
     167      22.46074114      22.46048529       1.139E-05     53.47    <-- DIS
     168      22.46059507      22.46034438       1.116E-05     53.79    <-- DIS
     169      22.46045257      22.46020691       1.094E-05     54.12    <-- DIS
     170      22.46031355      22.46007278       1.072E-05     54.44    <-- DIS
     171      22.46017790      22.45994191       1.051E-05     54.76    <-- DIS
     172      22.46004554      22.45981421       1.030E-05     55.09    <-- DIS
     173      22.45991638      22.45968959       1.010E-05     55.41    <-- DIS
     174      22.45979034      22.45956799       9.900E-06     55.73    <-- DIS
     175      22.45966733      22.45944931       9.708E-06     56.05    <-- DIS
     176      22.45954728      22.45933348       9.520E-06     56.37    <-- DIS
     177      22.45943011      22.45922043       9.336E-06     56.70    <-- DIS
     178      22.45931575      22.45911008       9.157E-06     57.02    <-- DIS
     179      22.45920411      22.45900236       8.983E-06     57.34    <-- DIS
     180      22.45909513      22.45889722       8.812E-06     57.66    <-- DIS
     181      22.45898874      22.45879457       8.646E-06     57.98    <-- DIS
     182      22.45888488      22.45869436       8.483E-06     58.30    <-- DIS
     183      22.45878347      22.45859652       8.324E-06     58.62    <-- DIS
     184      22.45868446      22.45850099       8.169E-06     58.95    <-- DIS
     185      22.45858778      22.45840771       8.018E-06     59.26    <-- DIS
     186      22.45849337      22.45831663       7.870E-06     59.59    <-- DIS
     187      22.45840118      22.45822769       7.725E-06     59.91    <-- DIS
     188      22.45831115      22.45814084       7.584E-06     60.23    <-- DIS
     189      22.45822322      22.45805601       7.445E-06     60.55    <-- DIS
     190      22.45813734      22.45797316       7.310E-06     60.87    <-- DIS
     191      22.45805346      22.45789225       7.178E-06     61.20    <-- DIS
     192      22.45797153      22.45781321       7.049E-06     61.52    <-- DIS
     193      22.45789149      22.45773601       6.923E-06     61.84    <-- DIS
     194      22.45781331      22.45766060       6.800E-06     62.16    <-- DIS
     195      22.45773693      22.45758693       6.679E-06     62.48    <-- DIS
     196      22.45766231      22.45751496       6.561E-06     62.81    <-- DIS
     197      22.45758940      22.45744465       6.446E-06     63.13    <-- DIS
     198      22.45751817      22.45737595       6.333E-06     63.45    <-- DIS
     199      22.45744856      22.45730883       6.222E-06     63.78    <-- DIS
     200      22.45738055      22.45724324       6.114E-06     64.10    <-- DIS

     <<< Warning: Maximum number of disentanglement iterations reached >>>
          <<< Disentanglement convergence criteria not satisfied >>>

        Final Omega_I    22.45724324 (Ang^2)

 +----------------------------------------------------------------------------+

 Time to disentangle bands     67.990 (sec)

 done

 
 *------------------------------- WANNIERISE ---------------------------------*
 +--------------------------------------------------------------------+<-- CONV
 | Iter  Delta Spread     RMS Gradient      Spread (Ang^2)      Time  |<-- CONV
 +--------------------------------------------------------------------+<-- CONV
 
 ------------------------------------------------------------------------------
 Initial State
  WF centre and spread    1  (  0.000000,  0.000000, -0.000000 )     1.44792178
  WF centre and spread    2  ( -0.000000,  0.000000,  0.000000 )     1.44792178
  WF centre and spread    3  (  0.000000, -0.000000,  0.000000 )     1.41835002
  WF centre and spread    4  (  0.000000, -0.000000, -0.000000 )     1.41835002
  WF centre and spread    5  ( -0.000000,  0.000000,  0.000000 )     1.44109283
  WF centre and spread    6  ( -0.000000, -0.000000,  0.000000 )     1.44109283
  WF centre and spread    7  ( -0.000000, -0.000000,  0.000000 )     1.44109291
  WF centre and spread    8  ( -0.000000,  0.000000, -0.000000 )     1.44109291
  WF centre and spread    9  (  0.000000,  0.000000, -0.000000 )     0.50060455
  WF centre and spread   10  (  0.000000, -0.000000,  0.000000 )     0.50060455
  WF centre and spread   11  ( -0.000000, -0.000000, -0.000000 )     0.46770336
  WF centre and spread   12  ( -0.000000, -0.000000, -0.000000 )     0.46770336
  WF centre and spread   13  ( -0.000000,  0.000000, -0.000000 )     0.46770336
  WF centre and spread   14  (  0.000000,  0.000000,  0.000000 )     0.46770336
  WF centre and spread   15  (  0.000000,  0.000000,  0.000000 )     0.49617178
  WF centre and spread   16  ( -0.000000, -0.000000, -0.000000 )     0.49617178
  WF centre and spread   17  (  0.000000, -0.000000,  0.000000 )     0.48818390
  WF centre and spread   18  (  0.000000,  0.000000, -0.000000 )     0.48818390
  WF centre and spread   19  (  1.364071,  1.364072,  1.889492 )     1.74764484
  WF centre and spread   20  (  1.364072,  1.364072,  1.889492 )     1.74764484
  WF centre and spread   21  (  1.364072,  1.364072,  1.889492 )     1.74536053
  WF centre and spread   22  (  1.364072,  1.364072,  1.889492 )     1.74536053
  WF centre and spread   23  (  1.364072,  1.364071,  1.889492 )     1.69652419
  WF centre and spread   24  (  1.364072,  1.364072,  1.889492 )     1.69652418
  WF centre and spread   25  (  1.364072,  1.364072,  1.889492 )     1.69652487
  WF centre and spread   26  (  1.364071,  1.364072,  1.889492 )     1.69652487
  WF centre and spread   27  (  1.364072,  1.364072,  1.889492 )     0.86498330
  WF centre and spread   28  (  1.364072,  1.364072,  1.889492 )     0.86498330
  WF centre and spread   29  (  1.364072,  1.364072,  1.889492 )     0.85831481
  WF centre and spread   30  (  1.364072,  1.364072,  1.889492 )     0.85831481
  WF centre and spread   31  (  1.364072,  1.364072,  1.889492 )     0.85831489
  WF centre and spread   32  (  1.364072,  1.364072,  1.889492 )     0.85831489
  WF centre and spread   33  (  1.364072,  1.364072,  1.889492 )     0.82847857
  WF centre and spread   34  (  1.364072,  1.364072,  1.889492 )     0.82847857
  WF centre and spread   35  (  1.364072,  1.364072,  1.889492 )     0.87507251
  WF centre and spread   36  (  1.364072,  1.364072,  1.889492 )     0.87507251
  Sum of centres and spreads ( 24.553287, 24.553287, 34.010856 )    38.68008596
 
      0     0.387E+02     0.0000000000       38.6800859456      66.00  <-- CONV
        O_D=      0.0002180 O_OD=     16.2226247 O_TOT=     38.6800859 <-- SPRD
 ------------------------------------------------------------------------------
 Final State
  WF centre and spread    1  (  0.000000,  0.000000, -0.000000 )     1.44792178
  WF centre and spread    2  ( -0.000000,  0.000000,  0.000000 )     1.44792178
  WF centre and spread    3  (  0.000000, -0.000000,  0.000000 )     1.41835002
  WF centre and spread    4  (  0.000000, -0.000000, -0.000000 )     1.41835002
  WF centre and spread    5  ( -0.000000,  0.000000,  0.000000 )     1.44109283
  WF centre and spread    6  ( -0.000000, -0.000000,  0.000000 )     1.44109283
  WF centre and spread    7  ( -0.000000, -0.000000,  0.000000 )     1.44109291
  WF centre and spread    8  ( -0.000000,  0.000000, -0.000000 )     1.44109291
  WF centre and spread    9  (  0.000000,  0.000000, -0.000000 )     0.50060455
  WF centre and spread   10  (  0.000000, -0.000000,  0.000000 )     0.50060455
  WF centre and spread   11  ( -0.000000, -0.000000, -0.000000 )     0.46770336
  WF centre and spread   12  ( -0.000000, -0.000000, -0.000000 )     0.46770336
  WF centre and spread   13  ( -0.000000,  0.000000, -0.000000 )     0.46770336
  WF centre and spread   14  (  0.000000,  0.000000,  0.000000 )     0.46770336
  WF centre and spread   15  (  0.000000,  0.000000,  0.000000 )     0.49617178
  WF centre and spread   16  ( -0.000000, -0.000000, -0.000000 )     0.49617178
  WF centre and spread   17  (  0.000000, -0.000000,  0.000000 )     0.48818390
  WF centre and spread   18  (  0.000000,  0.000000, -0.000000 )     0.48818390
  WF centre and spread   19  (  1.364071,  1.364072,  1.889492 )     1.74764484
  WF centre and spread   20  (  1.364072,  1.364072,  1.889492 )     1.74764484
  WF centre and spread   21  (  1.364072,  1.364072,  1.889492 )     1.74536053
  WF centre and spread   22  (  1.364072,  1.364072,  1.889492 )     1.74536053
  WF centre and spread   23  (  1.364072,  1.364071,  1.889492 )     1.69652419
  WF centre and spread   24  (  1.364072,  1.364072,  1.889492 )     1.69652418
  WF centre and spread   25  (  1.364072,  1.364072,  1.889492 )     1.69652487
  WF centre and spread   26  (  1.364071,  1.364072,  1.889492 )     1.69652487
  WF centre and spread   27  (  1.364072,  1.364072,  1.889492 )     0.86498330
  WF centre and spread   28  (  1.364072,  1.364072,  1.889492 )     0.86498330
  WF centre and spread   29  (  1.364072,  1.364072,  1.889492 )     0.85831481
  WF centre and spread   30  (  1.364072,  1.364072,  1.889492 )     0.85831481
  WF centre and spread   31  (  1.364072,  1.364072,  1.889492 )     0.85831489
  WF centre and spread   32  (  1.364072,  1.364072,  1.889492 )     0.85831489
  WF centre and spread   33  (  1.364072,  1.364072,  1.889492 )     0.82847857
  WF centre and spread   34  (  1.364072,  1.364072,  1.889492 )     0.82847857
  WF centre and spread   35  (  1.364072,  1.364072,  1.889492 )     0.87507251
  WF centre and spread   36  (  1.364072,  1.364072,  1.889492 )     0.87507251
  Sum of centres and spreads ( 24.553287, 24.553287, 34.010856 )    38.68008596
 
         Spreads (Ang^2)       Omega I      =    22.457243243
        ================       Omega D      =     0.000217972
                               Omega OD     =    16.222624731
    Final Spread (Ang^2)       Omega Total  =    38.680085946
 ------------------------------------------------------------------------------
 Time for wannierise            0.212 (sec)

 done

 *---------------------------------------------------------------------------*
 |                               PLOTTING                                    |
 *---------------------------------------------------------------------------*
 
  
 Time for plotting           2078.275 (sec)
 Total Execution Time        2163.247 (sec)

 *===========================================================================*
 |                             TIMING INFORMATION                            |
 *===========================================================================*
 |    Tag                                                Ncalls      Time (s)|
 |---------------------------------------------------------------------------|
 |kmesh: get                                        :         1         0.243|
 |overlap: allocate                                 :         1         0.005|
 |overlap: read                                     :         1        16.289|
 |dis: main                                         :         1        67.990|
 |wann: main                                        :         1         0.212|
 |plot: main                                        :         1      2078.275|
 *---------------------------------------------------------------------------*
 
 All done: wannier90 exiting
