       #
       # Generated by the Wannier90 code http://www.wannier.org
       # On 13May2024 at 14:14:03 
       #
CRYSTAL
PRIMVEC
   2.7281430   0.0000000   0.0000000
   0.0000000   2.7281430   0.0000000
   0.0000000   0.0000000   3.7789840
CONVVEC
   2.7281430   0.0000000   0.0000000
   0.0000000   2.7281430   0.0000000
   0.0000000   0.0000000   3.7789840
PRIMCOORD
     2  1
Fe      0.0000000   0.0000000   0.0000000
Pt      1.3640715   1.3640715   1.8894920


BEGIN_BLOCK_DATAGRID_3D
3D_field
BEGIN_DATAGRID_3D_UNKNOWN
    54    54    80
   -2.829185   -2.829185   -3.873459
   5.3552437   0.0000000   0.0000000
   0.0000000   5.3552437   0.0000000
   0.0000000   0.0000000   7.4634934
  0.29879E-01  0.28677E-01  0.22329E-01  0.13735E-01  0.57867E-02  0.95286E-03
  0.48758E-02  0.81152E-02  0.10290E-01  0.11111E-01  0.10522E-01  0.89102E-02
  0.68522E-02  0.47929E-02  0.29946E-02  0.16545E-02  0.93567E-03  0.87724E-03
  0.15057E-02  0.26796E-02  0.40846E-02  0.52669E-02  0.55139E-02  0.39298E-02
  0.22166E-02  0.88191E-02  0.17517E-01  0.24815E-01  0.27839E-01  0.25388E-01
  0.18662E-01  0.10589E-01  0.48007E-02  0.45832E-02  0.55693E-02  0.52864E-02
  0.41896E-02  0.29001E-02  0.18400E-02  0.11921E-02  0.10043E-02  0.16354E-02
  0.30334E-02  0.48936E-02  0.69947E-02  0.90691E-02  0.10675E-01  0.11244E-01
  0.10381E-01  0.81144E-02  0.48109E-02  0.21506E-02  0.67052E-02  0.14217E-01
  0.28842E-01  0.25302E-01  0.17373E-01  0.85691E-02  0.21554E-02  0.30258E-02
  0.51175E-02  0.65456E-02  0.75301E-02  0.77770E-02  0.70764E-02  0.56456E-02
  0.39424E-02  0.23464E-02  0.10873E-02  0.41892E-03  0.32674E-03  0.42904E-03
  0.14684E-02  0.30083E-02  0.46980E-02  0.60188E-02  0.60856E-02  0.37931E-02
  0.35304E-02  0.12756E-01  0.23788E-01  0.32660E-01  0.35861E-01  0.32085E-01
  0.23016E-01  0.12326E-01  0.41912E-02  0.44008E-02  0.61631E-02  0.59914E-02
  0.47212E-02  0.31430E-02  0.17658E-02  0.90742E-03  0.49841E-03  0.25818E-03
  0.11510E-02  0.25306E-02  0.41855E-02  0.59048E-02  0.73221E-02  0.79907E-02
  0.76773E-02  0.65619E-02  0.51061E-02  0.39633E-02  0.48607E-02  0.97759E-02
  0.22713E-01  0.17645E-01  0.96791E-02  0.29955E-02  0.38116E-02  0.51240E-02
  0.50002E-02  0.46423E-02  0.44515E-02  0.41057E-02  0.32722E-02  0.20145E-02
  0.68862E-03  0.64504E-03  0.14320E-02  0.17711E-02  0.15103E-02  0.64600E-03
  0.11142E-02  0.30245E-02  0.50512E-02  0.66025E-02  0.66910E-02  0.40844E-02
  0.39760E-02  0.14316E-01  0.26479E-01  0.36093E-01  0.39330E-01  0.34846E-01
  0.24582E-01  0.12567E-01  0.30839E-02  0.44911E-02  0.67162E-02  0.64890E-02
  0.49684E-02  0.30576E-02  0.13949E-02  0.99449E-03  0.15325E-02  0.16782E-02
  0.13476E-02  0.90280E-03  0.13790E-02  0.25591E-02  0.37262E-02  0.44822E-02
  0.47115E-02  0.46977E-02  0.50008E-02  0.57795E-02  0.61478E-02  0.64410E-02
  0.14314E-01  0.91851E-02  0.35542E-02  0.46212E-02  0.63736E-02  0.56720E-02
  0.38306E-02  0.21859E-02  0.11187E-02  0.31272E-03  0.72942E-03  0.18597E-02
  0.29459E-02  0.37601E-02  0.41589E-02  0.40244E-02  0.32512E-02  0.18400E-02
  0.80591E-03  0.28979E-02  0.53234E-02  0.72417E-02  0.76734E-02  0.53728E-02
  0.26120E-02  0.11845E-01  0.23341E-01  0.32440E-01  0.35461E-01  0.31133E-01
  0.21332E-01  0.99152E-02  0.14330E-02  0.55935E-02  0.75581E-02  0.69965E-02
  0.51079E-02  0.28007E-02  0.10491E-02  0.19831E-02  0.32510E-02  0.39474E-02
  0.40612E-02  0.37056E-02  0.30260E-02  0.22346E-02  0.17031E-02  0.16802E-02
  0.18961E-02  0.23803E-02  0.37934E-02  0.60351E-02  0.76803E-02  0.72778E-02
  0.64675E-02  0.32041E-02  0.40485E-02  0.63772E-02  0.63336E-02  0.42564E-02
  0.15659E-02  0.98595E-03  0.24916E-02  0.36718E-02  0.47703E-02  0.58179E-02
  0.66587E-02  0.71244E-02  0.70900E-02  0.64461E-02  0.51114E-02  0.31170E-02
  0.10361E-02  0.28189E-02  0.56827E-02  0.80772E-02  0.91287E-02  0.77593E-02
  0.34498E-02  0.59166E-02  0.15018E-01  0.22437E-01  0.24957E-01  0.21482E-01
  0.13565E-01  0.45002E-02  0.36033E-02  0.77198E-02  0.88175E-02  0.76856E-02
  0.53339E-02  0.25842E-02  0.11938E-02  0.32290E-02  0.51206E-02  0.63841E-02
  0.69950E-02  0.70355E-02  0.66155E-02  0.58567E-02  0.49187E-02  0.39477E-02
  0.29027E-02  0.15271E-02  0.14981E-02  0.43290E-02  0.69340E-02  0.76773E-02
  0.14754E-02  0.31071E-02  0.50874E-02  0.56331E-02  0.42464E-02  0.16172E-02
  0.17122E-02  0.41471E-02  0.60310E-02  0.75055E-02  0.87408E-02  0.97251E-02
  0.10333E-01  0.10437E-01  0.99326E-02  0.87309E-02  0.67933E-02  0.41969E-02
  0.14178E-02  0.28711E-02  0.61729E-02  0.90651E-02  0.10833E-01  0.10677E-01
  0.80020E-02  0.33733E-02  0.47207E-02  0.96208E-02  0.11428E-01  0.91274E-02
  0.39820E-02  0.34162E-02  0.79554E-02  0.10347E-01  0.10345E-01  0.85582E-02
  0.57280E-02  0.25460E-02  0.15901E-02  0.43334E-02  0.68298E-02  0.86928E-02
  0.98533E-02  0.10350E-01  0.10268E-01  0.97066E-02  0.87848E-02  0.76173E-02
  0.62094E-02  0.43712E-02  0.18837E-02  0.14154E-02  0.43388E-02  0.60714E-02
  0.47846E-02  0.50361E-02  0.49494E-02  0.38274E-02  0.16442E-02  0.17616E-02
  0.46629E-02  0.72640E-02  0.93929E-02  0.11115E-01  0.12459E-01  0.13357E-01
  0.13702E-01  0.13403E-01  0.12387E-01  0.10607E-01  0.80806E-02  0.49361E-02
  0.16202E-02  0.29981E-02  0.66779E-02  0.99906E-02  0.12386E-01  0.13337E-01
  0.12456E-01  0.98337E-02  0.63558E-02  0.36205E-02  0.27788E-02  0.36329E-02
  0.63528E-02  0.96785E-02  0.12089E-01  0.12808E-01  0.11796E-01  0.94252E-02
  0.61959E-02  0.26749E-02  0.19078E-02  0.51270E-02  0.81578E-02  0.10602E-01
  0.12335E-01  0.13335E-01  0.13646E-01  0.13336E-01  0.12487E-01  0.11196E-01
  0.95239E-02  0.74358E-02  0.48437E-02  0.18376E-02  0.14117E-02  0.37967E-02
  0.81392E-02  0.65789E-02  0.47130E-02  0.23590E-02  0.12597E-02  0.41746E-02
  0.72594E-02  0.10043E-01  0.12417E-01  0.14332E-01  0.15709E-01  0.16448E-01
  0.16474E-01  0.15740E-01  0.14217E-01  0.11914E-01  0.89050E-02  0.53540E-02
  0.16596E-02  0.30576E-02  0.69827E-02  0.10568E-01  0.13399E-01  0.15143E-01
  0.15592E-01  0.14805E-01  0.13248E-01  0.11744E-01  0.11101E-01  0.11643E-01
  0.13016E-01  0.14417E-01  0.15067E-01  0.14537E-01  0.12782E-01  0.10003E-01
  0.65282E-02  0.28417E-02  0.21527E-02  0.56213E-02  0.90334E-02  0.11950E-01
  0.14200E-01  0.15702E-01  0.16444E-01  0.16448E-01  0.15752E-01  0.14421E-01
  0.12547E-01  0.10206E-01  0.74403E-02  0.43449E-02  0.13105E-02  0.22089E-02
  0.10390E-01  0.76566E-02  0.46417E-02  0.16076E-02  0.26291E-02  0.60314E-02
  0.93669E-02  0.12396E-01  0.14977E-01  0.16978E-01  0.18268E-01  0.18760E-01
  0.18423E-01  0.17266E-01  0.15317E-01  0.12631E-01  0.93239E-02  0.55659E-02
  0.16733E-02  0.29147E-02  0.69028E-02  0.10574E-01  0.13611E-01  0.15803E-01
  0.17045E-01  0.17387E-01  0.17086E-01  0.16574E-01  0.16288E-01  0.16413E-01
  0.16768E-01  0.16932E-01  0.16492E-01  0.15205E-01  0.13027E-01  0.10063E-01
  0.65406E-02  0.29170E-02  0.24296E-02  0.59254E-02  0.95117E-02  0.12716E-01
  0.15342E-01  0.17269E-01  0.18431E-01  0.18795E-01  0.18342E-01  0.17092E-01
  0.15126E-01  0.12568E-01  0.95494E-02  0.62091E-02  0.27788E-02  0.15040E-02
  0.11233E-01  0.79399E-02  0.43589E-02  0.12395E-02  0.37398E-02  0.74740E-02
  0.11060E-01  0.14281E-01  0.16947E-01  0.18884E-01  0.19966E-01  0.20148E-01
  0.19455E-01  0.17953E-01  0.15716E-01  0.12836E-01  0.94389E-02  0.56805E-02
  0.17982E-02  0.25265E-02  0.63745E-02  0.99272E-02  0.12940E-01  0.15269E-01
  0.16862E-01  0.17761E-01  0.18106E-01  0.18124E-01  0.18041E-01  0.17958E-01
  0.17789E-01  0.17323E-01  0.16347E-01  0.14729E-01  0.12433E-01  0.95213E-02
  0.61696E-02  0.28707E-02  0.27928E-02  0.61391E-02  0.96930E-02  0.12976E-01
  0.15792E-01  0.18003E-01  0.19509E-01  0.20225E-01  0.20078E-01  0.19031E-01
  0.17122E-01  0.14471E-01  0.11249E-01  0.76482E-02  0.38833E-02  0.11767E-02
  0.10639E-01  0.72440E-02  0.35602E-02  0.13026E-02  0.47771E-02  0.86758E-02
  0.12373E-01  0.15625E-01  0.18203E-01  0.19930E-01  0.20721E-01  0.20588E-01
  0.19609E-01  0.17887E-01  0.15527E-01  0.12637E-01  0.93338E-02  0.57550E-02
  0.20979E-02  0.19465E-02  0.54360E-02  0.86737E-02  0.11446E-01  0.13655E-01
  0.15273E-01  0.16332E-01  0.16916E-01  0.17151E-01  0.17161E-01  0.17001E-01
  0.16631E-01  0.15945E-01  0.14828E-01  0.13206E-01  0.11055E-01  0.84187E-02
  0.54551E-02  0.27700E-02  0.32354E-02  0.63111E-02  0.96604E-02  0.12839E-01
  0.15662E-01  0.17994E-01  0.19717E-01  0.20716E-01  0.20878E-01  0.20114E-01
  0.18407E-01  0.15835E-01  0.12572E-01  0.88490E-02  0.49120E-02  0.13175E-02
  0.90089E-02  0.58003E-02  0.23385E-02  0.20204E-02  0.57715E-02  0.96278E-02
  0.13240E-01  0.16332E-01  0.18659E-01  0.20073E-01  0.20548E-01  0.20153E-01
  0.18997E-01  0.17199E-01  0.14870E-01  0.12121E-01  0.90628E-02  0.58148E-02
  0.25564E-02  0.13301E-02  0.41668E-02  0.69204E-02  0.92783E-02  0.11168E-01
  0.12577E-01  0.13532E-01  0.14096E-01  0.14355E-01  0.14385E-01  0.14225E-01
  0.13854E-01  0.13210E-01  0.12220E-01  0.10834E-01  0.90336E-02  0.68610E-02
  0.44925E-02  0.27329E-02  0.37326E-02  0.64583E-02  0.94686E-02  0.12397E-01
  0.15075E-01  0.17373E-01  0.19169E-01  0.20339E-01  0.20756E-01  0.20299E-01
  0.18895E-01  0.16564E-01  0.13451E-01  0.98032E-02  0.59025E-02  0.20904E-02
  0.69186E-02  0.40656E-02  0.10896E-02  0.29452E-02  0.65719E-02  0.10209E-01
  0.13560E-01  0.16329E-01  0.18289E-01  0.19343E-01  0.19529E-01  0.18956E-01
  0.17743E-01  0.16000E-01  0.13834E-01  0.11354E-01  0.86649E-02  0.58717E-02
  0.31249E-02  0.11819E-02  0.26917E-02  0.48020E-02  0.66133E-02  0.80376E-02
  0.90691E-02  0.97420E-02  0.10120E-01  0.10281E-01  0.10288E-01  0.10172E-01
  0.99206E-02  0.94867E-02  0.88075E-02  0.78320E-02  0.65453E-02  0.50031E-02
  0.34675E-02  0.29013E-02  0.42621E-02  0.65863E-02  0.91564E-02  0.11715E-01
  0.14122E-01  0.16253E-01  0.17989E-01  0.19209E-01  0.19796E-01  0.19619E-01
  0.18564E-01  0.16588E-01  0.13787E-01  0.10391E-01  0.67018E-02  0.30267E-02
  0.48179E-02  0.24167E-02  0.73727E-03  0.36923E-02  0.70129E-02  0.10296E-01
  0.13244E-01  0.15574E-01  0.17106E-01  0.17810E-01  0.17772E-01  0.17119E-01
  0.15960E-01  0.14387E-01  0.12496E-01  0.10392E-01  0.81723E-02  0.59196E-02
  0.37426E-02  0.18930E-02  0.14239E-02  0.25122E-02  0.36273E-02  0.44639E-02
  0.50009E-02  0.52807E-02  0.53768E-02  0.53697E-02  0.53227E-02  0.52673E-02
  0.51973E-02  0.50705E-02  0.48245E-02  0.44068E-02  0.38126E-02  0.31524E-02
  0.28081E-02  0.33630E-02  0.47976E-02  0.66868E-02  0.87546E-02  0.10854E-01
  0.12883E-01  0.14735E-01  0.16293E-01  0.17451E-01  0.18108E-01  0.18144E-01
  0.17427E-01  0.15867E-01  0.13493E-01  0.10490E-01  0.71466E-02  0.37732E-02
  0.29799E-02  0.10799E-02  0.13651E-02  0.40695E-02  0.69701E-02  0.97855E-02
  0.12221E-01  0.14042E-01  0.15142E-01  0.15554E-01  0.15387E-01  0.14760E-01
  0.13759E-01  0.12458E-01  0.10942E-01  0.93010E-02  0.76134E-02  0.59407E-02
  0.43566E-02  0.29703E-02  0.19151E-02  0.13070E-02  0.11188E-02  0.11098E-02
  0.11021E-02  0.10778E-02  0.10658E-02  0.10491E-02  0.97055E-03  0.80114E-03
  0.60885E-03  0.62933E-03  0.95089E-03  0.13889E-02  0.18656E-02  0.24120E-02
  0.31216E-02  0.40844E-02  0.53142E-02  0.67452E-02  0.82899E-02  0.98784E-02
  0.11448E-01  0.12920E-01  0.14195E-01  0.15182E-01  0.15800E-01  0.15952E-01
  0.15514E-01  0.14374E-01  0.12500E-01  0.99995E-02  0.71146E-02  0.41507E-02
  0.16319E-02  0.36704E-03  0.17172E-02  0.39438E-02  0.63345E-02  0.85915E-02
  0.10447E-01  0.11742E-01  0.12458E-01  0.12671E-01  0.12488E-01  0.11994E-01
  0.11254E-01  0.10324E-01  0.92653E-02  0.81454E-02  0.70197E-02  0.59383E-02
  0.49659E-02  0.41872E-02  0.36791E-02  0.34788E-02  0.35720E-02  0.39006E-02
  0.43806E-02  0.49165E-02  0.54042E-02  0.57421E-02  0.58544E-02  0.57144E-02
  0.53538E-02  0.48587E-02  0.43523E-02  0.39694E-02  0.38223E-02  0.39621E-02
  0.43717E-02  0.50063E-02  0.58210E-02  0.67664E-02  0.77908E-02  0.88520E-02
  0.99118E-02  0.10920E-01  0.11811E-01  0.12519E-01  0.12984E-01  0.13137E-01
  0.12885E-01  0.12119E-01  0.10759E-01  0.88305E-02  0.64948E-02  0.40279E-02
  0.10351E-02  0.55007E-03  0.15345E-02  0.32098E-02  0.50285E-02  0.66796E-02
  0.79456E-02  0.87583E-02  0.91743E-02  0.92937E-02  0.91979E-02  0.89394E-02
  0.85563E-02  0.80814E-02  0.75449E-02  0.69809E-02  0.64336E-02  0.59618E-02
  0.56397E-02  0.55477E-02  0.57449E-02  0.62345E-02  0.69545E-02  0.78056E-02
  0.86889E-02  0.95161E-02  0.10200E-01  0.10653E-01  0.10806E-01  0.10632E-01
  0.10158E-01  0.94598E-02  0.86324E-02  0.77788E-02  0.70059E-02  0.64263E-02
  0.61285E-02  0.61314E-02  0.63803E-02  0.67916E-02  0.72916E-02  0.78256E-02
  0.83523E-02  0.88386E-02  0.92580E-02  0.95852E-02  0.97899E-02  0.98323E-02
  0.96561E-02  0.91757E-02  0.82893E-02  0.69410E-02  0.52020E-02  0.32919E-02
  0.11585E-02  0.85011E-03  0.92086E-03  0.18915E-02  0.30904E-02  0.41316E-02
  0.48514E-02  0.52627E-02  0.54759E-02  0.55938E-02  0.56693E-02  0.57254E-02
  0.57752E-02  0.58176E-02  0.58414E-02  0.58562E-02  0.59140E-02  0.60937E-02
  0.64663E-02  0.70722E-02  0.79133E-02  0.89482E-02  0.10097E-01  0.11260E-01
  0.12351E-01  0.13298E-01  0.14041E-01  0.14517E-01  0.14675E-01  0.14495E-01
  0.13998E-01  0.13238E-01  0.12281E-01  0.11199E-01  0.10075E-01  0.90130E-02
  0.81217E-02  0.74731E-02  0.70764E-02  0.68868E-02  0.68332E-02  0.68376E-02
  0.68314E-02  0.67758E-02  0.66710E-02  0.65377E-02  0.63882E-02  0.62183E-02
  0.60087E-02  0.57068E-02  0.52072E-02  0.43957E-02  0.32545E-02  0.19340E-02
  0.17711E-02  0.17167E-02  0.13799E-02  0.10571E-02  0.11497E-02  0.14522E-02
  0.16491E-02  0.17260E-02  0.17871E-02  0.19271E-02  0.21906E-02  0.25805E-02
  0.30770E-02  0.36394E-02  0.42244E-02  0.48358E-02  0.55404E-02  0.64154E-02
  0.74826E-02  0.87034E-02  0.10019E-01  0.11370E-01  0.12688E-01  0.13893E-01
  0.14915E-01  0.15715E-01  0.16284E-01  0.16621E-01  0.16727E-01  0.16600E-01
  0.16243E-01  0.15659E-01  0.14850E-01  0.13832E-01  0.12651E-01  0.11389E-01
  0.10139E-01  0.89764E-02  0.79585E-02  0.71226E-02  0.64667E-02  0.59295E-02
  0.54198E-02  0.48764E-02  0.42967E-02  0.37160E-02  0.31734E-02  0.27055E-02
  0.23472E-02  0.20999E-02  0.18828E-02  0.15588E-02  0.10848E-02  0.79538E-03
  0.28544E-02  0.31438E-02  0.31284E-02  0.29653E-02  0.28483E-02  0.28816E-02
  0.30233E-02  0.31267E-02  0.30468E-02  0.27290E-02  0.22112E-02  0.16120E-02
  0.13016E-02  0.17922E-02  0.27947E-02  0.40106E-02  0.54063E-02  0.69800E-02
  0.86599E-02  0.10331E-01  0.11899E-01  0.13303E-01  0.14473E-01  0.15334E-01
  0.15846E-01  0.16049E-01  0.16055E-01  0.15991E-01  0.15951E-01  0.15971E-01
  0.16019E-01  0.16003E-01  0.15798E-01  0.15295E-01  0.14457E-01  0.13327E-01
  0.11992E-01  0.10530E-01  0.90184E-02  0.75594E-02  0.62564E-02  0.51488E-02
  0.42065E-02  0.34178E-02  0.28496E-02  0.25767E-02  0.25637E-02  0.26790E-02
  0.27789E-02  0.27654E-02  0.26464E-02  0.25340E-02  0.25518E-02  0.27293E-02
  0.41820E-02  0.47634E-02  0.50845E-02  0.53188E-02  0.56422E-02  0.61116E-02
  0.66162E-02  0.69384E-02  0.68900E-02  0.64018E-02  0.55018E-02  0.42557E-02
  0.27671E-02  0.13587E-02  0.16738E-02  0.34756E-02  0.55864E-02  0.77978E-02
  0.99427E-02  0.11861E-01  0.13437E-01  0.14571E-01  0.15148E-01  0.15091E-01
  0.14457E-01  0.13473E-01  0.12459E-01  0.11715E-01  0.11435E-01  0.11691E-01
  0.12421E-01  0.13434E-01  0.14430E-01  0.15086E-01  0.15172E-01  0.14631E-01
  0.13542E-01  0.12030E-01  0.10213E-01  0.82327E-02  0.62732E-02  0.45352E-02
  0.32573E-02  0.28403E-02  0.34076E-02  0.44084E-02  0.53888E-02  0.61413E-02
  0.65541E-02  0.65752E-02  0.62618E-02  0.57933E-02  0.53768E-02  0.51127E-02
  0.53044E-02  0.60429E-02  0.66059E-02  0.72073E-02  0.79967E-02  0.89483E-02
  0.98571E-02  0.10436E-01  0.10458E-01  0.98410E-02  0.86234E-02  0.69016E-02
  0.47954E-02  0.24595E-02  0.99138E-03  0.32884E-02  0.60884E-02  0.88275E-02
  0.11271E-01  0.13230E-01  0.14531E-01  0.14970E-01  0.14361E-01  0.12704E-01
  0.10315E-01  0.77473E-02  0.55718E-02  0.41688E-02  0.36644E-02  0.40765E-02
  0.54495E-02  0.76553E-02  0.10279E-01  0.12726E-01  0.14431E-01  0.15079E-01
  0.14671E-01  0.13399E-01  0.11486E-01  0.91313E-02  0.65650E-02  0.41215E-02
  0.25579E-02  0.31938E-02  0.50094E-02  0.68799E-02  0.84702E-02  0.96104E-02
  0.10183E-01  0.10141E-01  0.95648E-02  0.86802E-02  0.77694E-02  0.70318E-02
  0.55364E-02  0.61318E-02  0.67423E-02  0.76885E-02  0.90697E-02  0.10696E-01
  0.12199E-01  0.13192E-01  0.13408E-01  0.12757E-01  0.11296E-01  0.91666E-02
  0.65322E-02  0.35452E-02  0.81320E-03  0.34349E-02  0.68398E-02  0.99823E-02
  0.12575E-01  0.14370E-01  0.15069E-01  0.14317E-01  0.11936E-01  0.82279E-02
  0.41355E-02  0.22627E-02  0.43159E-02  0.60145E-02  0.66038E-02  0.60127E-02
  0.41944E-02  0.16569E-02  0.38407E-02  0.82033E-02  0.12033E-01  0.14474E-01
  0.15251E-01  0.14559E-01  0.12764E-01  0.10188E-01  0.71179E-02  0.39460E-02
  0.20177E-02  0.38891E-02  0.66262E-02  0.91469E-02  0.11207E-01  0.12621E-01
  0.13236E-01  0.12995E-01  0.11989E-01  0.10487E-01  0.88782E-02  0.75427E-02
  0.41230E-02  0.40174E-02  0.42729E-02  0.55301E-02  0.78263E-02  0.10599E-01
  0.13140E-01  0.14885E-01  0.15530E-01  0.15007E-01  0.13421E-01  0.10976E-01
  0.78885E-02  0.43440E-02  0.88872E-03  0.38343E-02  0.77283E-02  0.11157E-01
  0.13770E-01  0.15205E-01  0.14976E-01  0.12621E-01  0.81955E-02  0.30414E-02
  0.45599E-02  0.88920E-02  0.11792E-01  0.13303E-01  0.13831E-01  0.13515E-01
  0.12062E-01  0.89910E-02  0.42025E-02  0.24491E-02  0.82357E-02  0.12808E-01
  0.15200E-01  0.15423E-01  0.13954E-01  0.11301E-01  0.78556E-02  0.40334E-02
  0.15397E-02  0.45250E-02  0.79822E-02  0.11029E-01  0.13443E-01  0.14996E-01
  0.15484E-01  0.14801E-01  0.13011E-01  0.10426E-01  0.76519E-02  0.54380E-02
  0.31420E-02  0.36822E-02  0.33276E-02  0.14729E-02  0.34366E-02  0.80528E-02
  0.12314E-01  0.15322E-01  0.16728E-01  0.16544E-01  0.14978E-01  0.12321E-01
  0.88641E-02  0.48467E-02  0.97771E-03  0.43804E-02  0.86458E-02  0.12260E-01
  0.14786E-01  0.15697E-01  0.14314E-01  0.10212E-01  0.41582E-02  0.46445E-02
  0.10435E-01  0.14194E-01  0.15800E-01  0.16228E-01  0.16432E-01  0.16726E-01
  0.16574E-01  0.14854E-01  0.10642E-01  0.41088E-02  0.38162E-02  0.10381E-01
  0.14571E-01  0.15945E-01  0.14979E-01  0.12372E-01  0.86755E-02  0.43525E-02
  0.10783E-02  0.49793E-02  0.90138E-02  0.12479E-01  0.15127E-01  0.16669E-01
  0.16813E-01  0.15342E-01  0.12233E-01  0.79040E-02  0.36159E-02  0.25898E-02
  0.93131E-02  0.12586E-01  0.13340E-01  0.10393E-01  0.43380E-02  0.31367E-02
  0.97869E-02  0.14566E-01  0.17060E-01  0.17416E-01  0.16002E-01  0.13237E-01
  0.95003E-02  0.51038E-02  0.10602E-02  0.49671E-02  0.95005E-02  0.13218E-01
  0.15583E-01  0.15888E-01  0.13316E-01  0.76690E-02  0.26066E-02  0.89418E-02
  0.14114E-01  0.16035E-01  0.15664E-01  0.14707E-01  0.14402E-01  0.15303E-01
  0.16881E-01  0.17375E-01  0.14931E-01  0.89414E-02  0.10348E-02  0.77338E-02
  0.13589E-01  0.16163E-01  0.15791E-01  0.13318E-01  0.94754E-02  0.48069E-02
  0.65850E-03  0.52485E-02  0.97288E-02  0.13505E-01  0.16277E-01  0.17670E-01
  0.17263E-01  0.14658E-01  0.97258E-02  0.36346E-02  0.60365E-02  0.11428E-01
  0.17810E-01  0.23647E-01  0.25469E-01  0.21708E-01  0.13332E-01  0.30872E-02
  0.63232E-02  0.13069E-01  0.16781E-01  0.17767E-01  0.16583E-01  0.13792E-01
  0.98671E-02  0.51957E-02  0.11609E-02  0.54899E-02  0.10205E-01  0.13969E-01
  0.16151E-01  0.15888E-01  0.12305E-01  0.55837E-02  0.46180E-02  0.11703E-01
  0.15460E-01  0.15365E-01  0.13391E-01  0.11478E-01  0.10324E-01  0.11145E-01
  0.14280E-01  0.17154E-01  0.16893E-01  0.12148E-01  0.38592E-02  0.54373E-02
  0.12574E-01  0.16185E-01  0.16376E-01  0.14070E-01  0.10154E-01  0.52659E-02
  0.39864E-03  0.53784E-02  0.10173E-01  0.14157E-01  0.16963E-01  0.18127E-01
  0.17072E-01  0.13196E-01  0.63853E-02  0.53488E-02  0.15225E-01  0.22992E-01
  0.24928E-01  0.32785E-01  0.35444E-01  0.31029E-01  0.20817E-01  0.82320E-02
  0.33094E-02  0.11624E-01  0.16321E-01  0.17825E-01  0.16850E-01  0.14073E-01
  0.10045E-01  0.52083E-02  0.12563E-02  0.58515E-02  0.10672E-01  0.14453E-01
  0.16491E-01  0.15825E-01  0.11572E-01  0.43248E-02  0.62328E-02  0.13010E-01
  0.15531E-01  0.14119E-01  0.11645E-01  0.96686E-02  0.72678E-02  0.65943E-02
  0.10970E-01  0.15847E-01  0.17375E-01  0.13798E-01  0.57861E-02  0.39106E-02
  0.11831E-01  0.16136E-01  0.16729E-01  0.14558E-01  0.10613E-01  0.56022E-02
  0.40496E-03  0.54270E-02  0.10405E-01  0.14503E-01  0.17300E-01  0.18255E-01
  0.16664E-01  0.11763E-01  0.39184E-02  0.10397E-01  0.23055E-01  0.32540E-01
  0.27710E-01  0.36341E-01  0.39319E-01  0.34653E-01  0.23737E-01  0.10258E-01
  0.21247E-02  0.11030E-01  0.16107E-01  0.17813E-01  0.16921E-01  0.14157E-01
  0.10096E-01  0.52048E-02  0.12961E-02  0.59808E-02  0.10837E-01  0.14621E-01
  0.16605E-01  0.15793E-01  0.11308E-01  0.39292E-02  0.67771E-02  0.13365E-01
  0.15415E-01  0.13603E-01  0.11194E-01  0.94141E-02  0.63751E-02  0.41251E-02
  0.93725E-02  0.15158E-01  0.17390E-01  0.14282E-01  0.64258E-02  0.33789E-02
  0.11561E-01  0.16109E-01  0.16848E-01  0.14728E-01  0.10775E-01  0.57253E-02
  0.45178E-03  0.54380E-02  0.10477E-01  0.14610E-01  0.17396E-01  0.18267E-01
  0.16467E-01  0.11172E-01  0.33059E-02  0.12489E-01  0.26119E-01  0.36252E-01
  0.24928E-01  0.32785E-01  0.35444E-01  0.31029E-01  0.20817E-01  0.82320E-02
  0.33094E-02  0.11624E-01  0.16321E-01  0.17825E-01  0.16850E-01  0.14073E-01
  0.10045E-01  0.52083E-02  0.12563E-02  0.58515E-02  0.10672E-01  0.14453E-01
  0.16491E-01  0.15825E-01  0.11572E-01  0.43248E-02  0.62328E-02  0.13010E-01
  0.15531E-01  0.14119E-01  0.11645E-01  0.96686E-02  0.72678E-02  0.65943E-02
  0.10970E-01  0.15847E-01  0.17375E-01  0.13798E-01  0.57861E-02  0.39106E-02
  0.11831E-01  0.16136E-01  0.16729E-01  0.14558E-01  0.10613E-01  0.56022E-02
  0.40496E-03  0.54270E-02  0.10405E-01  0.14503E-01  0.17300E-01  0.18255E-01
  0.16664E-01  0.11763E-01  0.39184E-02  0.10397E-01  0.23055E-01  0.32540E-01
  0.17810E-01  0.23647E-01  0.25469E-01  0.21708E-01  0.13332E-01  0.30872E-02
  0.63232E-02  0.13069E-01  0.16781E-01  0.17767E-01  0.16583E-01  0.13792E-01
  0.98671E-02  0.51957E-02  0.11609E-02  0.54899E-02  0.10205E-01  0.13969E-01
  0.16151E-01  0.15888E-01  0.12305E-01  0.55837E-02  0.46180E-02  0.11703E-01
  0.15460E-01  0.15365E-01  0.13391E-01  0.11478E-01  0.10324E-01  0.11145E-01
  0.14280E-01  0.17154E-01  0.16893E-01  0.12148E-01  0.38592E-02  0.54373E-02
  0.12574E-01  0.16185E-01  0.16376E-01  0.14070E-01  0.10154E-01  0.52659E-02
  0.39864E-03  0.53784E-02  0.10173E-01  0.14157E-01  0.16963E-01  0.18127E-01
  0.17072E-01  0.13196E-01  0.63853E-02  0.53488E-02  0.15225E-01  0.22992E-01
  0.93130E-02  0.12586E-01  0.13340E-01  0.10393E-01  0.43380E-02  0.31367E-02
  0.97869E-02  0.14566E-01  0.17060E-01  0.17416E-01  0.16002E-01  0.13237E-01
  0.95003E-02  0.51038E-02  0.10602E-02  0.49671E-02  0.95005E-02  0.13218E-01
  0.15583E-01  0.15888E-01  0.13316E-01  0.76690E-02  0.26066E-02  0.89418E-02
  0.14114E-01  0.16035E-01  0.15664E-01  0.14707E-01  0.14402E-01  0.15303E-01
  0.16881E-01  0.17375E-01  0.14931E-01  0.89414E-02  0.10348E-02  0.77338E-02
  0.13589E-01  0.16163E-01  0.15791E-01  0.13318E-01  0.94755E-02  0.48069E-02
  0.65850E-03  0.52485E-02  0.97288E-02  0.13505E-01  0.16276E-01  0.17670E-01
  0.17263E-01  0.14658E-01  0.97258E-02  0.36346E-02  0.60365E-02  0.11428E-01
  0.31420E-02  0.36822E-02  0.33276E-02  0.14729E-02  0.34366E-02  0.80528E-02
  0.12314E-01  0.15322E-01  0.16728E-01  0.16544E-01  0.14978E-01  0.12321E-01
  0.88641E-02  0.48467E-02  0.97771E-03  0.43804E-02  0.86458E-02  0.12260E-01
  0.14786E-01  0.15697E-01  0.14314E-01  0.10212E-01  0.41582E-02  0.46445E-02
  0.10435E-01  0.14194E-01  0.15800E-01  0.16228E-01  0.16432E-01  0.16726E-01
  0.16574E-01  0.14854E-01  0.10642E-01  0.41088E-02  0.38162E-02  0.10381E-01
  0.14571E-01  0.15945E-01  0.14979E-01  0.12372E-01  0.86755E-02  0.43525E-02
  0.10783E-02  0.49793E-02  0.90138E-02  0.12479E-01  0.15127E-01  0.16669E-01
  0.16813E-01  0.15342E-01  0.12233E-01  0.79040E-02  0.36159E-02  0.25898E-02
  0.41230E-02  0.40174E-02  0.42729E-02  0.55301E-02  0.78263E-02  0.10599E-01
  0.13140E-01  0.14885E-01  0.15530E-01  0.15007E-01  0.13421E-01  0.10976E-01
  0.78885E-02  0.43440E-02  0.88872E-03  0.38343E-02  0.77283E-02  0.11157E-01
  0.13770E-01  0.15205E-01  0.14976E-01  0.12621E-01  0.81955E-02  0.30414E-02
  0.45599E-02  0.88920E-02  0.11792E-01  0.13303E-01  0.13831E-01  0.13515E-01
  0.12062E-01  0.89910E-02  0.42025E-02  0.24491E-02  0.82357E-02  0.12808E-01
  0.15200E-01  0.15423E-01  0.13954E-01  0.11301E-01  0.78556E-02  0.40334E-02
  0.15397E-02  0.45250E-02  0.79822E-02  0.11029E-01  0.13443E-01  0.14996E-01
  0.15484E-01  0.14801E-01  0.13011E-01  0.10426E-01  0.76519E-02  0.54380E-02
  0.55364E-02  0.61318E-02  0.67423E-02  0.76885E-02  0.90697E-02  0.10696E-01
  0.12199E-01  0.13192E-01  0.13408E-01  0.12757E-01  0.11296E-01  0.91666E-02
  0.65322E-02  0.35452E-02  0.81320E-03  0.34349E-02  0.68398E-02  0.99823E-02
  0.12575E-01  0.14370E-01  0.15069E-01  0.14317E-01  0.11936E-01  0.82279E-02
  0.41355E-02  0.22627E-02  0.43159E-02  0.60145E-02  0.66038E-02  0.60127E-02
  0.41944E-02  0.16569E-02  0.38407E-02  0.82033E-02  0.12033E-01  0.14474E-01
  0.15251E-01  0.14559E-01  0.12764E-01  0.10188E-01  0.71179E-02  0.39460E-02
  0.20177E-02  0.38891E-02  0.66262E-02  0.91469E-02  0.11207E-01  0.12621E-01
  0.13236E-01  0.12995E-01  0.11989E-01  0.10487E-01  0.88782E-02  0.75427E-02
  0.53043E-02  0.60429E-02  0.66059E-02  0.72073E-02  0.79967E-02  0.89483E-02
  0.98571E-02  0.10436E-01  0.10458E-01  0.98410E-02  0.86234E-02  0.69016E-02
  0.47954E-02  0.24595E-02  0.99138E-03  0.32884E-02  0.60884E-02  0.88275E-02
  0.11271E-01  0.13230E-01  0.14531E-01  0.14970E-01  0.14361E-01  0.12704E-01
  0.10315E-01  0.77473E-02  0.55718E-02  0.41688E-02  0.36644E-02  0.40765E-02
  0.54495E-02  0.76553E-02  0.10279E-01  0.12726E-01  0.14431E-01  0.15079E-01
  0.14671E-01  0.13399E-01  0.11486E-01  0.91313E-02  0.65650E-02  0.41215E-02
  0.25579E-02  0.31938E-02  0.50094E-02  0.68799E-02  0.84702E-02  0.96104E-02
  0.10183E-01  0.10141E-01  0.95648E-02  0.86802E-02  0.77694E-02  0.70318E-02
  0.41820E-02  0.47634E-02  0.50845E-02  0.53188E-02  0.56422E-02  0.61116E-02
  0.66162E-02  0.69384E-02  0.68900E-02  0.64018E-02  0.55018E-02  0.42557E-02
  0.27671E-02  0.13587E-02  0.16738E-02  0.34756E-02  0.55864E-02  0.77978E-02
  0.99427E-02  0.11861E-01  0.13437E-01  0.14571E-01  0.15148E-01  0.15091E-01
  0.14457E-01  0.13473E-01  0.12459E-01  0.11715E-01  0.11435E-01  0.11691E-01
  0.12421E-01  0.13434E-01  0.14430E-01  0.15086E-01  0.15172E-01  0.14631E-01
  0.13542E-01  0.12030E-01  0.10213E-01  0.82327E-02  0.62732E-02  0.45352E-02
  0.32573E-02  0.28403E-02  0.34076E-02  0.44084E-02  0.53888E-02  0.61413E-02
  0.65541E-02  0.65752E-02  0.62618E-02  0.57933E-02  0.53768E-02  0.51127E-02
  0.28544E-02  0.31438E-02  0.31284E-02  0.29653E-02  0.28483E-02  0.28816E-02
  0.30233E-02  0.31267E-02  0.30468E-02  0.27290E-02  0.22112E-02  0.16120E-02
  0.13016E-02  0.17922E-02  0.27947E-02  0.40106E-02  0.54063E-02  0.69800E-02
  0.86599E-02  0.10331E-01  0.11899E-01  0.13303E-01  0.14473E-01  0.15334E-01
  0.15846E-01  0.16049E-01  0.16055E-01  0.15991E-01  0.15951E-01  0.15971E-01
  0.16019E-01  0.16003E-01  0.15798E-01  0.15295E-01  0.14457E-01  0.13327E-01
  0.11992E-01  0.10530E-01  0.90184E-02  0.75594E-02  0.62564E-02  0.51488E-02
  0.42065E-02  0.34178E-02  0.28496E-02  0.25767E-02  0.25637E-02  0.26790E-02
  0.27789E-02  0.27654E-02  0.26464E-02  0.25340E-02  0.25518E-02  0.27293E-02
  0.17711E-02  0.17167E-02  0.13799E-02  0.10571E-02  0.11497E-02  0.14522E-02
  0.16491E-02  0.17260E-02  0.17871E-02  0.19271E-02  0.21906E-02  0.25805E-02
  0.30770E-02  0.36394E-02  0.42244E-02  0.48358E-02  0.55404E-02  0.64154E-02
  0.74826E-02  0.87034E-02  0.10019E-01  0.11370E-01  0.12688E-01  0.13893E-01
  0.14915E-01  0.15715E-01  0.16284E-01  0.16621E-01  0.16727E-01  0.16600E-01
  0.16243E-01  0.15659E-01  0.14850E-01  0.13832E-01  0.12651E-01  0.11389E-01
  0.10139E-01  0.89764E-02  0.79585E-02  0.71226E-02  0.64667E-02  0.59295E-02
  0.54198E-02  0.48764E-02  0.42967E-02  0.37160E-02  0.31734E-02  0.27055E-02
  0.23472E-02  0.20999E-02  0.18828E-02  0.15588E-02  0.10848E-02  0.79538E-03
  0.11585E-02  0.85010E-03  0.92086E-03  0.18915E-02  0.30904E-02  0.41316E-02
  0.48514E-02  0.52627E-02  0.54759E-02  0.55938E-02  0.56693E-02  0.57254E-02
  0.57752E-02  0.58176E-02  0.58414E-02  0.58562E-02  0.59140E-02  0.60937E-02
  0.64663E-02  0.70722E-02  0.79133E-02  0.89482E-02  0.10097E-01  0.11260E-01
  0.12351E-01  0.13298E-01  0.14041E-01  0.14517E-01  0.14675E-01  0.14495E-01
  0.13998E-01  0.13238E-01  0.12281E-01  0.11199E-01  0.10075E-01  0.90130E-02
  0.81217E-02  0.74731E-02  0.70764E-02  0.68868E-02  0.68332E-02  0.68376E-02
  0.68314E-02  0.67758E-02  0.66710E-02  0.65377E-02  0.63882E-02  0.62183E-02
  0.60087E-02  0.57068E-02  0.52072E-02  0.43957E-02  0.32545E-02  0.19340E-02
  0.10351E-02  0.55006E-03  0.15345E-02  0.32098E-02  0.50285E-02  0.66796E-02
  0.79456E-02  0.87583E-02  0.91743E-02  0.92937E-02  0.91979E-02  0.89394E-02
  0.85563E-02  0.80814E-02  0.75449E-02  0.69809E-02  0.64336E-02  0.59618E-02
  0.56397E-02  0.55477E-02  0.57449E-02  0.62345E-02  0.69545E-02  0.78056E-02
  0.86889E-02  0.95161E-02  0.10200E-01  0.10653E-01  0.10806E-01  0.10632E-01
  0.10158E-01  0.94598E-02  0.86324E-02  0.77787E-02  0.70059E-02  0.64263E-02
  0.61285E-02  0.61314E-02  0.63803E-02  0.67916E-02  0.72916E-02  0.78256E-02
  0.83523E-02  0.88386E-02  0.92580E-02  0.95852E-02  0.97899E-02  0.98323E-02
  0.96561E-02  0.91757E-02  0.82893E-02  0.69410E-02  0.52020E-02  0.32919E-02
  0.16319E-02  0.36704E-03  0.17172E-02  0.39438E-02  0.63345E-02  0.85915E-02