       #
       # Generated by the Wannier90 code http://www.wannier.org
       # On 13May2024 at 14:14:03 
       #
CRYSTAL
PRIMVEC
   2.7281430   0.0000000   0.0000000
   0.0000000   2.7281430   0.0000000
   0.0000000   0.0000000   3.7789840
CONVVEC
   2.7281430   0.0000000   0.0000000
   0.0000000   2.7281430   0.0000000
   0.0000000   0.0000000   3.7789840
PRIMCOORD
     2  1
Fe      0.0000000   0.0000000   0.0000000
Pt      1.3640715   1.3640715   1.8894920


BEGIN_BLOCK_DATAGRID_3D
3D_field
BEGIN_DATAGRID_3D_UNKNOWN
    54    54    80
   -2.829185   -2.829185   -3.873459
   5.3552437   0.0000000   0.0000000
   0.0000000   5.3552437   0.0000000
   0.0000000   0.0000000   7.4634934
  0.86301E-02  0.54099E-02  0.21102E-02  0.31541E-02  0.42289E-02  0.35156E-02
  0.17063E-02  0.39204E-03  0.19266E-02  0.29803E-02  0.35622E-02  0.37678E-02
  0.36656E-02  0.33129E-02  0.27742E-02  0.21208E-02  0.14301E-02  0.80469E-03
  0.51415E-03  0.77530E-03  0.10883E-02  0.11760E-02  0.84681E-03  0.44283E-03
  0.20436E-02  0.43205E-02  0.66226E-02  0.83236E-02  0.89778E-02  0.84570E-02
  0.69383E-02  0.48322E-02  0.26844E-02  0.11050E-02  0.90880E-03  0.12130E-02
  0.11967E-02  0.92585E-03  0.58464E-03  0.63693E-03  0.11966E-02  0.18870E-02
  0.25598E-02  0.31264E-02  0.35098E-02  0.36408E-02  0.34592E-02  0.28970E-02
  0.18618E-02  0.36436E-03  0.16654E-02  0.33254E-02  0.38100E-02  0.23948E-02
  0.97997E-02  0.73733E-02  0.44742E-02  0.35343E-02  0.37087E-02  0.29734E-02
  0.14564E-02  0.36328E-03  0.14881E-02  0.22854E-02  0.27174E-02  0.28547E-02
  0.27372E-02  0.24039E-02  0.19126E-02  0.13354E-02  0.76560E-03  0.45532E-03
  0.73032E-03  0.11251E-02  0.13954E-02  0.14106E-02  0.10159E-02  0.50072E-03
  0.20068E-02  0.42383E-02  0.64541E-02  0.80612E-02  0.86754E-02  0.82025E-02
  0.67891E-02  0.47775E-02  0.26761E-02  0.11616E-02  0.11348E-02  0.15224E-02
  0.15753E-02  0.13531E-02  0.97211E-03  0.57444E-03  0.60404E-03  0.11210E-02
  0.17102E-02  0.22260E-02  0.25839E-02  0.27191E-02  0.25878E-02  0.21468E-02
  0.13305E-02  0.23243E-03  0.14373E-02  0.25964E-02  0.26211E-02  0.14068E-02
  0.93375E-02  0.80222E-02  0.58602E-02  0.42120E-02  0.32338E-02  0.21586E-02
  0.89599E-03  0.46875E-03  0.11850E-02  0.16454E-02  0.18750E-02  0.19129E-02
  0.17659E-02  0.14551E-02  0.10338E-02  0.59352E-03  0.40590E-03  0.71370E-03
  0.11140E-02  0.14491E-02  0.16466E-02  0.16196E-02  0.12555E-02  0.62965E-03
  0.14561E-02  0.32422E-02  0.50054E-02  0.62501E-02  0.67159E-02  0.63673E-02
  0.52970E-02  0.37241E-02  0.20644E-02  0.10894E-02  0.14054E-02  0.18030E-02
  0.18858E-02  0.17215E-02  0.13994E-02  0.97980E-03  0.54728E-03  0.45639E-03
  0.85667E-03  0.12973E-02  0.16273E-02  0.17799E-02  0.17253E-02  0.14490E-02
  0.91917E-03  0.21335E-03  0.92655E-03  0.16231E-02  0.15919E-02  0.20496E-02
  0.71992E-02  0.69009E-02  0.56030E-02  0.40501E-02  0.26093E-02  0.13071E-02
  0.33616E-03  0.61663E-03  0.94050E-03  0.10511E-02  0.10548E-02  0.97505E-03
  0.79575E-03  0.53585E-03  0.32842E-03  0.47727E-03  0.81537E-03  0.11596E-02
  0.14614E-02  0.16902E-02  0.18071E-02  0.17594E-02  0.14827E-02  0.97037E-03
  0.87722E-03  0.18711E-02  0.29742E-02  0.37199E-02  0.39784E-02  0.37807E-02
  0.31642E-02  0.22217E-02  0.13151E-02  0.12057E-02  0.16740E-02  0.20028E-02
  0.20846E-02  0.19777E-02  0.17407E-02  0.14072E-02  0.10039E-02  0.57157E-03
  0.22932E-03  0.39908E-03  0.68849E-03  0.86517E-03  0.90169E-03  0.80641E-03
  0.57918E-03  0.26216E-03  0.44969E-03  0.83896E-03  0.12009E-02  0.24338E-02
  0.42194E-02  0.45480E-02  0.39949E-02  0.29089E-02  0.16460E-02  0.50440E-03
  0.37560E-03  0.75607E-03  0.80651E-03  0.67527E-03  0.47921E-03  0.27532E-03
  0.22433E-03  0.46115E-03  0.76626E-03  0.10673E-02  0.13381E-02  0.15632E-02
  0.17336E-02  0.18406E-02  0.18678E-02  0.17929E-02  0.15955E-02  0.12721E-02
  0.95237E-03  0.10235E-02  0.13999E-02  0.16573E-02  0.17113E-02  0.16461E-02
  0.14682E-02  0.12084E-02  0.11580E-02  0.14666E-02  0.18344E-02  0.20691E-02
  0.21487E-02  0.21042E-02  0.19621E-02  0.17364E-02  0.14429E-02  0.11068E-02
  0.75809E-03  0.43761E-03  0.24331E-03  0.30041E-03  0.42177E-03  0.49987E-03
  0.51219E-03  0.43947E-03  0.30262E-03  0.34912E-03  0.88662E-03  0.19283E-02
  0.16784E-02  0.21335E-02  0.20009E-02  0.13912E-02  0.56008E-03  0.22793E-03
  0.73722E-03  0.96284E-03  0.99721E-03  0.95273E-03  0.90253E-03  0.91269E-03
  0.10279E-02  0.12227E-02  0.14393E-02  0.16378E-02  0.17959E-02  0.18985E-02
  0.19397E-02  0.19214E-02  0.18451E-02  0.17121E-02  0.15330E-02  0.13267E-02
  0.11347E-02  0.10477E-02  0.10882E-02  0.11372E-02  0.11412E-02  0.11436E-02
  0.11531E-02  0.11850E-02  0.13175E-02  0.15507E-02  0.17918E-02  0.19738E-02
  0.20790E-02  0.21085E-02  0.20633E-02  0.19448E-02  0.17659E-02  0.15508E-02
  0.13275E-02  0.11267E-02  0.98687E-03  0.93496E-03  0.94840E-03  0.96431E-03
  0.92727E-03  0.80864E-03  0.58696E-03  0.24646E-03  0.33332E-03  0.96802E-03
  0.44627E-03  0.61544E-03  0.53723E-03  0.20720E-03  0.30830E-03  0.75692E-03
  0.10931E-02  0.13155E-02  0.14606E-02  0.15461E-02  0.15959E-02  0.16565E-02
  0.17586E-02  0.18894E-02  0.20173E-02  0.21193E-02  0.21780E-02  0.21759E-02
  0.21038E-02  0.19669E-02  0.17777E-02  0.15519E-02  0.13171E-02  0.11096E-02
  0.95898E-03  0.89605E-03  0.93334E-03  0.10136E-02  0.10682E-02  0.10766E-02
  0.10587E-02  0.10677E-02  0.11589E-02  0.13293E-02  0.15334E-02  0.17316E-02
  0.18973E-02  0.20111E-02  0.20591E-02  0.20386E-02  0.19633E-02  0.18587E-02
  0.17508E-02  0.16598E-02  0.16024E-02  0.15863E-02  0.15934E-02  0.15756E-02
  0.14823E-02  0.12926E-02  0.10161E-02  0.66847E-03  0.27271E-03  0.14980E-03
  0.48788E-03  0.35476E-03  0.30929E-03  0.46609E-03  0.77043E-03  0.11157E-02
  0.14526E-02  0.17525E-02  0.19838E-02  0.21306E-02  0.22161E-02  0.22841E-02
  0.23593E-02  0.24340E-02  0.24907E-02  0.25162E-02  0.24956E-02  0.24091E-02
  0.22443E-02  0.20059E-02  0.17115E-02  0.13846E-02  0.10592E-02  0.77787E-03
  0.56600E-03  0.42090E-03  0.35415E-03  0.37443E-03  0.42394E-03  0.45623E-03
  0.48433E-03  0.55530E-03  0.69476E-03  0.89334E-03  0.11332E-02  0.13906E-02
  0.16333E-02  0.18311E-02  0.19649E-02  0.20324E-02  0.20485E-02  0.20388E-02
  0.20281E-02  0.20310E-02  0.20526E-02  0.20894E-02  0.21215E-02  0.21075E-02
  0.19995E-02  0.17736E-02  0.14466E-02  0.10618E-02  0.66737E-03  0.31875E-03
  0.15314E-02  0.10671E-02  0.74755E-03  0.69135E-03  0.95288E-03  0.13680E-02
  0.18056E-02  0.21869E-02  0.24658E-02  0.26369E-02  0.27320E-02  0.27920E-02
  0.28381E-02  0.28682E-02  0.28723E-02  0.28400E-02  0.27563E-02  0.26022E-02
  0.23663E-02  0.20542E-02  0.16879E-02  0.13021E-02  0.94993E-03  0.70856E-03
  0.63239E-03  0.66249E-03  0.70673E-03  0.72957E-03  0.72505E-03  0.69239E-03
  0.63438E-03  0.56143E-03  0.50724E-03  0.55044E-03  0.73937E-03  0.10191E-02
  0.13159E-02  0.15805E-02  0.17886E-02  0.19364E-02  0.20359E-02  0.21095E-02
  0.21798E-02  0.22600E-02  0.23513E-02  0.24439E-02  0.25148E-02  0.25243E-02
  0.24256E-02  0.21879E-02  0.18167E-02  0.13561E-02  0.88018E-03  0.53105E-03
  0.26586E-02  0.18672E-02  0.11764E-02  0.78440E-03  0.10329E-02  0.15901E-02
  0.21402E-02  0.25826E-02  0.28874E-02  0.30670E-02  0.31584E-02  0.32006E-02
  0.32160E-02  0.32086E-02  0.31715E-02  0.30930E-02  0.29581E-02  0.27527E-02
  0.24712E-02  0.21240E-02  0.17409E-02  0.13758E-02  0.11159E-02  0.10528E-02
  0.11707E-02  0.13560E-02  0.15215E-02  0.16262E-02  0.16532E-02  0.15984E-02
  0.14664E-02  0.12676E-02  0.10210E-02  0.77249E-03  0.63589E-03  0.73543E-03
  0.99254E-03  0.12792E-02  0.15388E-02  0.17547E-02  0.19304E-02  0.20814E-02
  0.22256E-02  0.23754E-02  0.25314E-02  0.26814E-02  0.27989E-02  0.28430E-02
  0.27659E-02  0.25302E-02  0.21265E-02  0.15851E-02  0.99764E-03  0.68189E-03
  0.34680E-02  0.24249E-02  0.14460E-02  0.80375E-03  0.11213E-02  0.18257E-02
  0.24627E-02  0.29444E-02  0.32613E-02  0.34377E-02  0.35138E-02  0.35290E-02
  0.35097E-02  0.34647E-02  0.33890E-02  0.32708E-02  0.30979E-02  0.28627E-02
  0.25675E-02  0.22288E-02  0.18836E-02  0.15957E-02  0.14494E-02  0.14937E-02
  0.16831E-02  0.19238E-02  0.21402E-02  0.22851E-02  0.23332E-02  0.22754E-02
  0.21163E-02  0.18711E-02  0.15633E-02  0.12274E-02  0.91892E-03  0.73593E-03
  0.77635E-03  0.98429E-03  0.12437E-02  0.14985E-02  0.17346E-02  0.19572E-02
  0.21768E-02  0.24002E-02  0.26252E-02  0.28376E-02  0.30085E-02  0.30951E-02
  0.30486E-02  0.28264E-02  0.24071E-02  0.18043E-02  0.11040E-02  0.75281E-03
  0.38679E-02  0.26360E-02  0.14597E-02  0.73635E-03  0.12851E-02  0.21151E-02
  0.28050E-02  0.33003E-02  0.36087E-02  0.37637E-02  0.38092E-02  0.37870E-02
  0.37261E-02  0.36387E-02  0.35239E-02  0.33739E-02  0.31817E-02  0.29446E-02
  0.26686E-02  0.23730E-02  0.20945E-02  0.18877E-02  0.18100E-02  0.18834E-02
  0.20716E-02  0.23056E-02  0.25198E-02  0.26677E-02  0.27223E-02  0.26731E-02
  0.25220E-02  0.22826E-02  0.19781E-02  0.16392E-02  0.13004E-02  0.10052E-02
  0.82064E-03  0.81622E-03  0.97097E-03  0.12032E-02  0.14658E-02  0.17466E-02
  0.20431E-02  0.23498E-02  0.26547E-02  0.29388E-02  0.31721E-02  0.33125E-02
  0.33101E-02  0.31186E-02  0.27068E-02  0.20725E-02  0.12744E-02  0.72515E-03
  0.38907E-02  0.25152E-02  0.12118E-02  0.70029E-03  0.15957E-02  0.25071E-02
  0.32110E-02  0.36866E-02  0.39561E-02  0.40626E-02  0.40561E-02  0.39810E-02
  0.38678E-02  0.37324E-02  0.35807E-02  0.34127E-02  0.32248E-02  0.30134E-02
  0.27816E-02  0.25452E-02  0.23333E-02  0.21833E-02  0.21288E-02  0.21827E-02
  0.23257E-02  0.25120E-02  0.26890E-02  0.28154E-02  0.28668E-02  0.28324E-02
  0.27108E-02  0.25106E-02  0.22507E-02  0.19555E-02  0.16480E-02  0.13481E-02
  0.10818E-02  0.89438E-03  0.84252E-03  0.94528E-03  0.11692E-02  0.14774E-02
  0.18430E-02  0.22384E-02  0.26349E-02  0.30048E-02  0.33166E-02  0.35296E-02
  0.35936E-02  0.34576E-02  0.30818E-02  0.24494E-02  0.15884E-02  0.72760E-03
  0.35803E-02  0.21004E-02  0.74971E-03  0.97749E-03  0.20941E-02  0.30286E-02
  0.37067E-02  0.41288E-02  0.43282E-02  0.43565E-02  0.42706E-02  0.41197E-02
  0.39388E-02  0.37505E-02  0.35696E-02  0.34016E-02  0.32412E-02  0.30769E-02
  0.29028E-02  0.27265E-02  0.25663E-02  0.24435E-02  0.23775E-02  0.23808E-02
  0.24506E-02  0.25632E-02  0.26821E-02  0.27738E-02  0.28165E-02  0.27988E-02
  0.27167E-02  0.25743E-02  0.23844E-02  0.21637E-02  0.19241E-02  0.16717E-02
  0.14124E-02  0.11623E-02  0.95415E-03  0.84807E-03  0.92219E-03  0.11935E-02
  0.16031E-02  0.20834E-02  0.25814E-02  0.30559E-02  0.34699E-02  0.37804E-02
  0.39353E-02  0.38796E-02  0.35662E-02  0.29680E-02  0.20915E-02  0.10228E-02
  0.29800E-02  0.14391E-02  0.44309E-03  0.16068E-02  0.27647E-02  0.36672E-02
  0.42839E-02  0.46261E-02  0.47325E-02  0.46581E-02  0.44651E-02  0.42114E-02
  0.39445E-02  0.36998E-02  0.35002E-02  0.33509E-02  0.32368E-02  0.31332E-02
  0.30219E-02  0.28990E-02  0.27709E-02  0.26483E-02  0.25454E-02  0.24787E-02
  0.24596E-02  0.24846E-02  0.25344E-02  0.25844E-02  0.26148E-02  0.26128E-02
  0.25728E-02  0.24965E-02  0.23909E-02  0.22634E-02  0.21158E-02  0.19427E-02
  0.17373E-02  0.14985E-02  0.12358E-02  0.97942E-03  0.82541E-03  0.94537E-03
  0.13502E-02  0.19046E-02  0.25116E-02  0.31102E-02  0.36503E-02  0.40803E-02
  0.43436E-02  0.43836E-02  0.41515E-02  0.36152E-02  0.27693E-02  0.16506E-02
  0.21458E-02  0.66919E-03  0.11420E-02  0.24582E-02  0.35675E-02  0.43920E-02
  0.49156E-02  0.51564E-02  0.51532E-02  0.49591E-02  0.46379E-02  0.42593E-02
  0.38908E-02  0.35875E-02  0.33800E-02  0.32655E-02  0.32118E-02  0.31766E-02
  0.31270E-02  0.30462E-02  0.29310E-02  0.27887E-02  0.26354E-02  0.24932E-02
  0.23837E-02  0.23187E-02  0.22954E-02  0.22997E-02  0.23142E-02  0.23256E-02
  0.23273E-02  0.23185E-02  0.23007E-02  0.22728E-02  0.22273E-02  0.21500E-02
  0.20236E-02  0.18337E-02  0.15738E-02  0.12527E-02  0.92357E-03  0.78995E-03
  0.11071E-02  0.17197E-02  0.24400E-02  0.31744E-02  0.38543E-02  0.44150E-02
  0.47953E-02  0.49405E-02  0.48053E-02  0.43568E-02  0.35818E-02  0.24991E-02
  0.12187E-02  0.84571E-03  0.21618E-02  0.34310E-02  0.44507E-02  0.51671E-02
  0.55735E-02  0.56924E-02  0.55628E-02  0.52354E-02  0.47747E-02  0.42612E-02
  0.37837E-02  0.34210E-02  0.32147E-02  0.31493E-02  0.31668E-02  0.32022E-02
  0.32072E-02  0.31554E-02  0.30398E-02  0.28698E-02  0.26666E-02  0.24564E-02
  0.22656E-02  0.21157E-02  0.20181E-02  0.19718E-02  0.19662E-02  0.19890E-02
  0.20322E-02  0.20908E-02  0.21594E-02  0.22281E-02  0.22820E-02  0.23006E-02
  0.22592E-02  0.21328E-02  0.19031E-02  0.15658E-02  0.11452E-02  0.77531E-03
  0.89559E-03  0.15432E-02  0.23737E-02  0.32413E-02  0.40589E-02  0.47519E-02
  0.52556E-02  0.55174E-02  0.54948E-02  0.51540E-02  0.44767E-02  0.34714E-02
  0.82043E-03  0.18385E-02  0.31945E-02  0.43874E-02  0.53100E-02  0.59178E-02
  0.62056E-02  0.61965E-02  0.59305E-02  0.54614E-02  0.48594E-02  0.42139E-02
  0.36296E-02  0.32089E-02  0.30103E-02  0.30059E-02  0.31021E-02  0.32053E-02
  0.32548E-02  0.32219E-02  0.31021E-02  0.29081E-02  0.26635E-02  0.23957E-02
  0.21327E-02  0.19020E-02  0.17278E-02  0.16245E-02  0.15931E-02  0.16260E-02
  0.17128E-02  0.18420E-02  0.19982E-02  0.21612E-02  0.23078E-02  0.24124E-02
  0.24466E-02  0.23806E-02  0.21898E-02  0.18606E-02  0.13997E-02  0.88090E-03
  0.74055E-03  0.13874E-02  0.23138E-02  0.32967E-02  0.42376E-02  0.50577E-02
  0.56885E-02  0.60727E-02  0.61647E-02  0.59296E-02  0.53489E-02  0.44296E-02
  0.14460E-02  0.27565E-02  0.40512E-02  0.51540E-02  0.59867E-02  0.65083E-02
  0.67072E-02  0.65963E-02  0.62115E-02  0.56120E-02  0.48799E-02  0.41161E-02
  0.34357E-02  0.29611E-02  0.27744E-02  0.28373E-02  0.30135E-02  0.31781E-02
  0.32639E-02  0.32472E-02  0.31272E-02  0.29165E-02  0.26367E-02  0.23153E-02
  0.19834E-02  0.16750E-02  0.14245E-02  0.12600E-02  0.11975E-02  0.12375E-02
  0.13684E-02  0.15704E-02  0.18170E-02  0.20760E-02  0.23128E-02  0.24945E-02
  0.25900E-02  0.25714E-02  0.24149E-02  0.21022E-02  0.16268E-02  0.10290E-02
  0.66035E-03  0.12617E-02  0.22576E-02  0.33275E-02  0.43684E-02  0.52993E-02
  0.60421E-02  0.65279E-02  0.67057E-02  0.65455E-02  0.60386E-02  0.51994E-02
  0.21801E-02  0.34576E-02  0.46349E-02  0.56185E-02  0.63535E-02  0.68043E-02
  0.69508E-02  0.67886E-02  0.63374E-02  0.56519E-02  0.48235E-02  0.39666E-02
  0.32081E-02  0.26887E-02  0.25169E-02  0.26459E-02  0.28949E-02  0.31126E-02
  0.32307E-02  0.32315E-02  0.31157E-02  0.28916E-02  0.25776E-02  0.22040E-02
  0.18093E-02  0.14348E-02  0.11196E-02  0.89838E-03  0.80026E-03  0.84042E-03
  0.10087E-02  0.12764E-02  0.16070E-02  0.19575E-02  0.22817E-02  0.25354E-02
  0.26830E-02  0.26997E-02  0.25679E-02  0.22699E-02  0.17923E-02  0.11595E-02
  0.64997E-03  0.11695E-02  0.21988E-02  0.33218E-02  0.44292E-02  0.54326E-02
  0.62401E-02  0.67739E-02  0.69872E-02  0.68661E-02  0.64189E-02  0.56688E-02
  0.27398E-02  0.38530E-02  0.48547E-02  0.56992E-02  0.63395E-02  0.67342E-02
  0.68560E-02  0.66897E-02  0.62371E-02  0.55352E-02  0.46687E-02  0.37601E-02
  0.29512E-02  0.24036E-02  0.22520E-02  0.24391E-02  0.27464E-02  0.30071E-02
  0.31539E-02  0.31715E-02  0.30589E-02  0.28207E-02  0.24758E-02  0.20597E-02
  0.16172E-02  0.11924E-02  0.82658E-03  0.55680E-03  0.41675E-03  0.44519E-03
  0.64644E-03  0.97348E-03  0.13749E-02  0.18007E-02  0.21984E-02  0.25156E-02
  0.27103E-02  0.27573E-02  0.26439E-02  0.23573E-02  0.18855E-02  0.12498E-02
  0.68496E-03  0.11057E-02  0.21262E-02  0.32625E-02  0.43890E-02  0.54035E-02
  0.62059E-02  0.67240E-02  0.69281E-02  0.68203E-02  0.64191E-02  0.57559E-02
  0.26653E-02  0.34303E-02  0.42307E-02  0.50387E-02  0.57377E-02  0.62067E-02
  0.63857E-02  0.62694E-02  0.58723E-02  0.52234E-02  0.43893E-02  0.34859E-02
  0.26671E-02  0.21182E-02  0.19966E-02  0.22302E-02  0.25762E-02  0.28660E-02
  0.30336E-02  0.30616E-02  0.29474E-02  0.26971E-02  0.23325E-02  0.18881E-02
  0.14007E-02  0.91321E-03  0.50462E-03  0.32207E-03  0.31527E-03  0.22201E-03
  0.23518E-03  0.62585E-03  0.11142E-02  0.16096E-02  0.20619E-02  0.24258E-02
  0.26597E-02  0.27359E-02  0.26413E-02  0.23680E-02  0.19118E-02  0.13000E-02
  0.74028E-03  0.10573E-02  0.20237E-02  0.31260E-02  0.42124E-02  0.51682E-02
  0.58984E-02  0.63469E-02  0.64893E-02  0.63131E-02  0.58272E-02  0.50980E-02
  0.87177E-03  0.10059E-02  0.16683E-02  0.27897E-02  0.40117E-02  0.49621E-02
  0.54607E-02  0.55253E-02  0.52488E-02  0.47081E-02  0.39698E-02  0.31349E-02
  0.23588E-02  0.18462E-02  0.17680E-02  0.20330E-02  0.23935E-02  0.26930E-02
  0.28672E-02  0.28952E-02  0.27757E-02  0.25200E-02  0.21468E-02  0.16682E-02
  0.10912E-02  0.51915E-03  0.61524E-03  0.11054E-02  0.13385E-02  0.11796E-02
  0.68770E-03  0.19190E-03  0.75043E-03  0.13616E-02  0.18715E-02  0.22661E-02
  0.25265E-02  0.26289E-02  0.25570E-02  0.23050E-02  0.18785E-02  0.13140E-02
  0.79668E-03  0.10112E-02  0.18767E-02  0.28920E-02  0.38776E-02  0.47150E-02
  0.53214E-02  0.56367E-02  0.55851E-02  0.50755E-02  0.40963E-02  0.28375E-02
  0.38054E-02  0.45496E-02  0.38354E-02  0.18621E-02  0.63769E-03  0.26940E-02
  0.39676E-02  0.44582E-02  0.44044E-02  0.40183E-02  0.34203E-02  0.27096E-02
  0.20335E-02  0.16024E-02  0.15800E-02  0.18553E-02  0.22017E-02  0.24858E-02
  0.26471E-02  0.26634E-02  0.25367E-02  0.22807E-02  0.18953E-02  0.13407E-02
  0.60343E-03  0.75290E-03  0.18708E-02  0.28237E-02  0.32334E-02  0.29444E-02
  0.20784E-02  0.95192E-03  0.19855E-03  0.10009E-02  0.16085E-02  0.20327E-02
  0.23077E-02  0.24306E-02  0.23857E-02  0.21668E-02  0.17874E-02  0.12919E-02
  0.84029E-03  0.95867E-03  0.16789E-02  0.25557E-02  0.33911E-02  0.40706E-02
  0.45091E-02  0.45877E-02  0.40933E-02  0.27896E-02  0.66754E-03  0.18384E-02
  0.10799E-01  0.12530E-01  0.11597E-01  0.83757E-02  0.41994E-02  0.56329E-03
  0.19857E-02  0.31327E-02  0.34073E-02  0.32119E-02  0.27775E-02  0.22286E-02
  0.17042E-02  0.14006E-02  0.14404E-02  0.17009E-02  0.20023E-02  0.22423E-02
  0.23684E-02  0.23596E-02  0.22207E-02  0.19616E-02  0.15492E-02  0.87743E-03
  0.46167E-03  0.19286E-02  0.36679E-02  0.50873E-02  0.56800E-02  0.52268E-02
  0.39176E-02  0.22330E-02  0.67611E-03  0.51603E-03  0.12563E-02  0.17167E-02
  0.20000E-02  0.21392E-02  0.21257E-02  0.19539E-02  0.16410E-02  0.12345E-02
  0.86399E-03  0.89661E-03  0.14348E-02  0.21322E-02  0.27883E-02  0.32911E-02
  0.35259E-02  0.32596E-02  0.20857E-02  0.41305E-03  0.41646E-02  0.83973E-02
  0.17104E-01  0.19518E-01  0.18362E-01  0.14146E-01  0.85772E-02  0.35174E-02
  0.29302E-03  0.17713E-02  0.23681E-02  0.23602E-02  0.20899E-02  0.17214E-02
  0.13884E-02  0.12481E-02  0.13489E-02  0.15738E-02  0.18048E-02  0.19747E-02
  0.20429E-02  0.19918E-02  0.18276E-02  0.15573E-02  0.11230E-02  0.42084E-03
  0.11544E-02  0.30608E-02  0.51900E-02  0.69013E-02  0.75991E-02  0.70333E-02
  0.54316E-02  0.33690E-02  0.14653E-02  0.25855E-03  0.85106E-03  0.13238E-02
  0.16094E-02  0.17661E-02  0.17919E-02  0.16820E-02  0.14544E-02  0.11524E-02
  0.86846E-03  0.82546E-03  0.11564E-02  0.16490E-02  0.21171E-02  0.24471E-02
  0.24818E-02  0.18765E-02  0.18042E-03  0.34634E-02  0.85800E-02  0.14201E-01
  0.18341E-01  0.20739E-01  0.19634E-01  0.15507E-01  0.99805E-02  0.48600E-02
  0.12744E-02  0.71870E-03  0.14213E-02  0.15265E-02  0.13991E-02  0.12202E-02
  0.11080E-02  0.11437E-02  0.12970E-02  0.14800E-02  0.16319E-02  0.17174E-02
  0.17104E-02  0.15966E-02  0.13845E-02  0.10947E-02  0.69734E-03  0.43525E-03
  0.15840E-02  0.34139E-02  0.54060E-02  0.69677E-02  0.75869E-02  0.70615E-02
  0.55863E-02  0.36597E-02  0.18549E-02  0.60766E-03  0.51071E-03  0.88746E-03
  0.11632E-02  0.13475E-02  0.14258E-02  0.13917E-02  0.12614E-02  0.10668E-02
  0.86062E-03  0.75117E-03  0.86212E-03  0.11334E-02  0.14187E-02  0.16044E-02
  0.15173E-02  0.79595E-03  0.12157E-02  0.48352E-02  0.99897E-02  0.15554E-01
  0.12003E-01  0.13554E-01  0.12985E-01  0.10495E-01  0.70031E-02  0.36437E-02
  0.12146E-02  0.23171E-03  0.65621E-03  0.74400E-03  0.73685E-03  0.77470E-03
  0.89848E-03  0.10829E-02  0.12726E-02  0.14237E-02  0.15125E-02  0.15244E-02
  0.14436E-02  0.12562E-02  0.96881E-03  0.63510E-03  0.38028E-03  0.62996E-03
  0.14935E-02  0.26921E-02  0.38759E-02  0.47012E-02  0.49909E-02  0.47191E-02
  0.39390E-02  0.28209E-02  0.16750E-02  0.80812E-03  0.37893E-03  0.45505E-03
  0.72346E-03  0.96198E-03  0.11078E-02  0.11525E-02  0.11108E-02  0.10028E-02
  0.85011E-03  0.68982E-03  0.59164E-03  0.61521E-03  0.71955E-03  0.80766E-03
  0.73823E-03  0.31330E-03  0.12026E-02  0.36172E-02  0.69583E-02  0.10452E-01
  0.26633E-03  0.15382E-02  0.27730E-02  0.31186E-02  0.25339E-02  0.14760E-02
  0.53693E-03  0.16737E-03  0.15914E-03  0.48303E-04  0.28410E-03  0.55157E-03
  0.81660E-03  0.10628E-02  0.12658E-02  0.14051E-02  0.14698E-02  0.14515E-02
  0.13375E-02  0.11110E-02  0.76955E-03  0.36739E-03  0.25911E-03  0.68874E-03
  0.12872E-02  0.19002E-02  0.22067E-02  0.20457E-02  0.17825E-02  0.19353E-02
  0.21334E-02  0.19304E-02  0.14082E-02  0.84751E-03  0.37929E-03  0.14651E-03
  0.48425E-03  0.78194E-03  0.97107E-03  0.10555E-02  0.10529E-02  0.97912E-03
  0.84544E-03  0.66513E-03  0.46029E-03  0.26299E-03  0.14388E-03  0.21577E-03
  0.29580E-03  0.27066E-03  0.57430E-03  0.13922E-02  0.22726E-02  0.26868E-02
  0.12003E-01  0.13554E-01  0.12985E-01  0.10495E-01  0.70031E-02  0.36437E-02
  0.12146E-02  0.23171E-03  0.65621E-03  0.74400E-03  0.73685E-03  0.77470E-03
  0.89848E-03  0.10829E-02  0.12726E-02  0.14237E-02  0.15125E-02  0.15244E-02
  0.14436E-02  0.12562E-02  0.96881E-03  0.63510E-03  0.38028E-03  0.62996E-03
  0.14935E-02  0.26921E-02  0.38759E-02  0.47012E-02  0.49909E-02  0.47191E-02
  0.39390E-02  0.28209E-02  0.16750E-02  0.80812E-03  0.37893E-03  0.45505E-03
  0.72346E-03  0.96198E-03  0.11078E-02  0.11525E-02  0.11108E-02  0.10028E-02
  0.85011E-03  0.68982E-03  0.59164E-03  0.61521E-03  0.71955E-03  0.80766E-03
  0.73823E-03  0.31330E-03  0.12026E-02  0.36172E-02  0.69583E-02  0.10452E-01
  0.18341E-01  0.20739E-01  0.19634E-01  0.15507E-01  0.99805E-02  0.48600E-02
  0.12744E-02  0.71870E-03  0.14213E-02  0.15265E-02  0.13991E-02  0.12202E-02
  0.11080E-02  0.11437E-02  0.12970E-02  0.14800E-02  0.16319E-02  0.17174E-02
  0.17104E-02  0.15966E-02  0.13845E-02  0.10947E-02  0.69734E-03  0.43525E-03
  0.15840E-02  0.34139E-02  0.54060E-02  0.69677E-02  0.75869E-02  0.70615E-02
  0.55863E-02  0.36597E-02  0.18549E-02  0.60766E-03  0.51072E-03  0.88746E-03
  0.11632E-02  0.13475E-02  0.14258E-02  0.13917E-02  0.12614E-02  0.10668E-02
  0.86062E-03  0.75117E-03  0.86212E-03  0.11334E-02  0.14187E-02  0.16044E-02
  0.15173E-02  0.79595E-03  0.12157E-02  0.48352E-02  0.99897E-02  0.15554E-01
  0.17104E-01  0.19518E-01  0.18362E-01  0.14146E-01  0.85772E-02  0.35174E-02
  0.29303E-03  0.17713E-02  0.23681E-02  0.23602E-02  0.20899E-02  0.17214E-02
  0.13884E-02  0.12481E-02  0.13489E-02  0.15738E-02  0.18048E-02  0.19747E-02
  0.20429E-02  0.19918E-02  0.18276E-02  0.15573E-02  0.11230E-02  0.42084E-03
  0.11544E-02  0.30608E-02  0.51900E-02  0.69013E-02  0.75991E-02  0.70333E-02
  0.54316E-02  0.33690E-02  0.14653E-02  0.25855E-03  0.85106E-03  0.13238E-02
  0.16094E-02  0.17661E-02  0.17919E-02  0.16820E-02  0.14544E-02  0.11523E-02
  0.86846E-03  0.82546E-03  0.11564E-02  0.16490E-02  0.21171E-02  0.24471E-02
  0.24818E-02  0.18765E-02  0.18042E-03  0.34634E-02  0.85800E-02  0.14201E-01
  0.10799E-01  0.12530E-01  0.11597E-01  0.83757E-02  0.41994E-02  0.56329E-03
  0.19857E-02  0.31327E-02  0.34073E-02  0.32119E-02  0.27775E-02  0.22286E-02
  0.17042E-02  0.14006E-02  0.14404E-02  0.17009E-02  0.20023E-02  0.22423E-02
  0.23684E-02  0.23596E-02  0.22207E-02  0.19616E-02  0.15492E-02  0.87743E-03
  0.46167E-03  0.19286E-02  0.36679E-02  0.50873E-02  0.56800E-02  0.52268E-02
  0.39176E-02  0.22330E-02  0.67611E-03  0.51603E-03  0.12563E-02  0.17167E-02
  0.20000E-02  0.21392E-02  0.21257E-02  0.19539E-02  0.16410E-02  0.12345E-02
  0.86399E-03  0.89661E-03  0.14348E-02  0.21322E-02  0.27883E-02  0.32911E-02
  0.35259E-02  0.32596E-02  0.20857E-02  0.41305E-03  0.41646E-02  0.83973E-02
  0.38054E-02  0.45496E-02  0.38354E-02  0.18621E-02  0.63769E-03  0.26940E-02
  0.39676E-02  0.44582E-02  0.44044E-02  0.40183E-02  0.34203E-02  0.27096E-02
  0.20335E-02  0.16024E-02  0.15800E-02  0.18553E-02  0.22017E-02  0.24858E-02
  0.26471E-02  0.26634E-02  0.25367E-02  0.22807E-02  0.18953E-02  0.13407E-02
  0.60343E-03  0.75290E-03  0.18708E-02  0.28237E-02  0.32334E-02  0.29444E-02
  0.20784E-02  0.95192E-03  0.19855E-03  0.10009E-02  0.16085E-02  0.20327E-02
  0.23077E-02  0.24306E-02  0.23857E-02  0.21668E-02  0.17874E-02  0.12919E-02
  0.84029E-03  0.95867E-03  0.16789E-02  0.25557E-02  0.33911E-02  0.40706E-02
  0.45091E-02  0.45877E-02  0.40933E-02  0.27896E-02  0.66754E-03  0.18384E-02
  0.87177E-03  0.10059E-02  0.16683E-02  0.27897E-02  0.40117E-02  0.49621E-02
  0.54607E-02  0.55253E-02  0.52488E-02  0.47081E-02  0.39698E-02  0.31349E-02
  0.23588E-02  0.18462E-02  0.17680E-02  0.20329E-02  0.23935E-02  0.26930E-02
  0.28672E-02  0.28952E-02  0.27757E-02  0.25200E-02  0.21468E-02  0.16682E-02
  0.10912E-02  0.51915E-03  0.61524E-03  0.11054E-02  0.13385E-02  0.11796E-02
  0.68770E-03  0.19190E-03  0.75043E-03  0.13616E-02  0.18715E-02  0.22661E-02
  0.25265E-02  0.26289E-02  0.25570E-02  0.23050E-02  0.18785E-02  0.13140E-02
  0.79667E-03  0.10112E-02  0.18767E-02  0.28920E-02  0.38776E-02  0.47150E-02
  0.53214E-02  0.56367E-02  0.55851E-02  0.50755E-02  0.40963E-02  0.28375E-02
  0.26653E-02  0.34303E-02  0.42307E-02  0.50387E-02  0.57377E-02  0.62067E-02
  0.63857E-02  0.62694E-02  0.58723E-02  0.52234E-02  0.43893E-02  0.34859E-02
  0.26671E-02  0.21182E-02  0.19966E-02  0.22302E-02  0.25762E-02  0.28660E-02
  0.30336E-02  0.30616E-02  0.29474E-02  0.26971E-02  0.23325E-02  0.18881E-02
  0.14007E-02  0.91321E-03  0.50462E-03  0.32207E-03  0.31527E-03  0.22201E-03
  0.23518E-03  0.62585E-03  0.11142E-02  0.16096E-02  0.20619E-02  0.24258E-02
  0.26597E-02  0.27359E-02  0.26413E-02  0.23680E-02  0.19118E-02  0.13000E-02
  0.74028E-03  0.10573E-02  0.20237E-02  0.31260E-02  0.42124E-02  0.51682E-02
  0.58984E-02  0.63469E-02  0.64893E-02  0.63131E-02  0.58272E-02  0.50980E-02
  0.27398E-02  0.38530E-02  0.48547E-02  0.56992E-02  0.63395E-02  0.67342E-02
  0.68560E-02  0.66897E-02  0.62371E-02  0.55352E-02  0.46687E-02  0.37601E-02
  0.29512E-02  0.24036E-02  0.22520E-02  0.24391E-02  0.27464E-02  0.30071E-02
  0.31539E-02  0.31715E-02  0.30589E-02  0.28207E-02  0.24758E-02  0.20597E-02
  0.16172E-02  0.11924E-02  0.82658E-03  0.55680E-03  0.41675E-03  0.44519E-03
  0.64644E-03  0.97348E-03  0.13749E-02  0.18007E-02  0.21984E-02  0.25156E-02
  0.27103E-02  0.27573E-02  0.26439E-02  0.23573E-02  0.18855E-02  0.12498E-02
  0.68496E-03  0.11057E-02  0.21262E-02  0.32625E-02  0.43890E-02  0.54035E-02
  0.62059E-02  0.67240E-02  0.69281E-02  0.68203E-02  0.64191E-02  0.57559E-02
  0.21801E-02  0.34576E-02  0.46349E-02  0.56185E-02  0.63535E-02  0.68043E-02
  0.69508E-02  0.67886E-02  0.63374E-02  0.56519E-02  0.48235E-02  0.39666E-02
  0.32081E-02  0.26887E-02  0.25169E-02  0.26459E-02  0.28949E-02  0.31126E-02
  0.32307E-02  0.32316E-02  0.31157E-02  0.28916E-02  0.25776E-02  0.22040E-02
  0.18093E-02  0.14348E-02  0.11196E-02  0.89838E-03  0.80026E-03  0.84042E-03
  0.10087E-02  0.12764E-02  0.16070E-02  0.19575E-02  0.22817E-02  0.25354E-02
  0.26830E-02  0.26997E-02  0.25679E-02  0.22698E-02  0.17923E-02  0.11595E-02
  0.64996E-03  0.11695E-02  0.21988E-02  0.33218E-02  0.44292E-02  0.54326E-02
  0.62401E-02  0.67739E-02  0.69872E-02  0.68661E-02  0.64189E-02  0.56688E-02
  0.14460E-02  0.27565E-02  0.40512E-02  0.51540E-02  0.59867E-02  0.65083E-02
  0.67072E-02  0.65963E-02  0.62115E-02  0.56120E-02  0.48799E-02  0.41161E-02
  0.34357E-02  0.29611E-02  0.27744E-02  0.28373E-02  0.30135E-02  0.31781E-02
  0.32639E-02  0.32472E-02  0.31272E-02  0.29165E-02  0.26367E-02  0.23153E-02
  0.19834E-02  0.16750E-02  0.14245E-02  0.12600E-02  0.11975E-02  0.12375E-02
  0.13684E-02  0.15704E-02  0.18170E-02  0.20760E-02  0.23128E-02  0.24945E-02
  0.25900E-02  0.25714E-02  0.24149E-02  0.21022E-02  0.16268E-02  0.10290E-02
  0.66035E-03  0.12617E-02  0.22576E-02  0.33275E-02  0.43684E-02  0.52993E-02
  0.60421E-02  0.65279E-02  0.67057E-02  0.65455E-02  0.60386E-02  0.51994E-02
  0.82043E-03  0.18385E-02  0.31945E-02  0.43874E-02  0.53100E-02  0.59178E-02
  0.62056E-02  0.61965E-02  0.59305E-02  0.54614E-02  0.48594E-02  0.42139E-02
  0.36296E-02  0.32089E-02  0.30103E-02  0.30059E-02  0.31021E-02  0.32053E-02
  0.32548E-02  0.32219E-02  0.31021E-02  0.29081E-02  0.26635E-02  0.23957E-02
  0.21327E-02  0.19020E-02  0.17278E-02  0.16245E-02  0.15931E-02  0.16260E-02
  0.17128E-02  0.18420E-02  0.19982E-02  0.21612E-02  0.23078E-02  0.24124E-02
  0.24466E-02  0.23806E-02  0.21898E-02  0.18606E-02  0.13997E-02  0.88090E-03
  0.74055E-03  0.13874E-02  0.23138E-02  0.32967E-02  0.42376E-02  0.50577E-02
  0.56885E-02  0.60727E-02  0.61647E-02  0.59296E-02  0.53489E-02  0.44296E-02
  0.12187E-02  0.84571E-03  0.21618E-02  0.34310E-02  0.44507E-02  0.51671E-02
  0.55735E-02  0.56924E-02  0.55628E-02  0.52354E-02  0.47747E-02  0.42612E-02
  0.37837E-02  0.34210E-02  0.32147E-02  0.31493E-02  0.31668E-02  0.32022E-02
  0.32072E-02  0.31554E-02  0.30398E-02  0.28698E-02  0.26666E-02  0.24564E-02
  0.22656E-02  0.21157E-02  0.20181E-02  0.19718E-02  0.19662E-02  0.19890E-02
  0.20322E-02  0.20908E-02  0.21594E-02  0.22281E-02  0.22820E-02  0.23006E-02
  0.22592E-02  0.21328E-02  0.19031E-02  0.15658E-02  0.11452E-02  0.77531E-03
  0.89558E-03  0.15432E-02  0.23737E-02  0.32413E-02  0.40589E-02  0.47519E-02
  0.52556E-02  0.55174E-02  0.54948E-02  0.51540E-02  0.44767E-02  0.34714E-02
  0.21458E-02  0.66919E-03  0.11420E-02  0.24582E-02  0.35675E-02  0.43920E-02