       #
       # Generated by the Wannier90 code http://www.wannier.org
       # On 13May2024 at 14:14:03 
       #
CRYSTAL
PRIMVEC
   2.7281430   0.0000000   0.0000000
   0.0000000   2.7281430   0.0000000
   0.0000000   0.0000000   3.7789840
CONVVEC
   2.7281430   0.0000000   0.0000000
   0.0000000   2.7281430   0.0000000
   0.0000000   0.0000000   3.7789840
PRIMCOORD
     2  1
Fe      0.0000000   0.0000000   0.0000000
Pt      1.3640715   1.3640715   1.8894920


BEGIN_BLOCK_DATAGRID_3D
3D_field
BEGIN_DATAGRID_3D_UNKNOWN
    54    54    80
   -2.829185   -2.829185   -3.873459
   5.3552437   0.0000000   0.0000000
   0.0000000   5.3552437   0.0000000
   0.0000000   0.0000000   7.4634934
  0.51678E-02  0.49955E-02  0.40172E-02  0.25358E-02  0.11231E-02  0.35813E-03
  0.12143E-03  0.55839E-03  0.13437E-02  0.20506E-02  0.25500E-02  0.28252E-02
  0.28838E-02  0.27387E-02  0.24147E-02  0.19359E-02  0.13333E-02  0.69289E-03
  0.29422E-03  0.63432E-03  0.10602E-02  0.11595E-02  0.24425E-03  0.25052E-02
  0.67679E-02  0.10699E-01  0.11524E-01  0.76129E-02  0.66644E-03  0.74554E-02
  0.11404E-01  0.10627E-01  0.67388E-02  0.25056E-02  0.23365E-03  0.11382E-02
  0.10307E-02  0.58094E-03  0.13016E-03  0.62665E-03  0.12857E-02  0.18906E-02
  0.23686E-02  0.26916E-02  0.28366E-02  0.27794E-02  0.25076E-02  0.20142E-02
  0.13144E-02  0.54443E-03  0.34301E-03  0.64069E-03  0.11950E-02  0.24081E-02
  0.48992E-02  0.52405E-02  0.46782E-02  0.33823E-02  0.18744E-02  0.73300E-03
  0.26011E-03  0.43408E-03  0.89645E-03  0.13612E-02  0.16962E-02  0.18651E-02
  0.18579E-02  0.16754E-02  0.13339E-02  0.85501E-03  0.30368E-03  0.45460E-03
  0.10080E-02  0.14729E-02  0.17930E-02  0.16532E-02  0.31137E-03  0.30621E-02
  0.80010E-02  0.12398E-01  0.13207E-01  0.87066E-02  0.93106E-03  0.84108E-02
  0.12980E-01  0.12259E-01  0.79422E-02  0.30585E-02  0.28274E-03  0.16187E-02
  0.17611E-02  0.14483E-02  0.99312E-03  0.44633E-03  0.27879E-03  0.82798E-03
  0.13013E-02  0.16386E-02  0.18192E-02  0.18270E-02  0.16608E-02  0.13298E-02
  0.86466E-03  0.40717E-03  0.45275E-03  0.10379E-02  0.21035E-02  0.34830E-02
  0.38056E-02  0.45479E-02  0.44411E-02  0.35202E-02  0.22070E-02  0.10470E-02
  0.39258E-03  0.26966E-03  0.41978E-03  0.63366E-03  0.79696E-03  0.85723E-03
  0.78719E-03  0.57831E-03  0.25537E-03  0.29823E-03  0.84516E-03  0.14366E-02
  0.19537E-02  0.23390E-02  0.25408E-02  0.22552E-02  0.77490E-03  0.26112E-02
  0.74646E-02  0.11752E-01  0.12587E-01  0.83676E-02  0.13684E-02  0.79979E-02
  0.12304E-01  0.11582E-01  0.73973E-02  0.26128E-02  0.73363E-03  0.22101E-02
  0.25047E-02  0.23184E-02  0.19506E-02  0.14515E-02  0.87975E-03  0.36286E-03
  0.27446E-03  0.56116E-03  0.76607E-03  0.84221E-03  0.79436E-03  0.64522E-03
  0.42611E-03  0.23023E-03  0.51798E-03  0.13485E-02  0.25883E-02  0.38978E-02
  0.22525E-02  0.31669E-02  0.34240E-02  0.29383E-02  0.19866E-02  0.99972E-03
  0.29780E-03  0.10330E-03  0.22790E-03  0.29236E-03  0.34050E-03  0.38603E-03
  0.46700E-03  0.64183E-03  0.93714E-03  0.13498E-02  0.18593E-02  0.23965E-02
  0.28556E-02  0.31661E-02  0.32775E-02  0.29550E-02  0.16357E-02  0.12500E-02
  0.53560E-02  0.90442E-02  0.99443E-02  0.67377E-02  0.14892E-02  0.63875E-02
  0.96796E-02  0.88930E-02  0.53057E-02  0.12636E-02  0.15868E-02  0.29055E-02
  0.32411E-02  0.31475E-02  0.28543E-02  0.24100E-02  0.18830E-02  0.13772E-02
  0.96134E-03  0.66237E-03  0.49992E-03  0.46002E-03  0.47159E-03  0.47149E-03
  0.40587E-03  0.18602E-03  0.34664E-03  0.12400E-02  0.24012E-02  0.34671E-02
  0.85923E-03  0.16700E-02  0.20974E-02  0.19529E-02  0.13616E-02  0.60637E-03
  0.85553E-04  0.55746E-03  0.87213E-03  0.10689E-02  0.11954E-02  0.13030E-02
  0.14447E-02  0.16540E-02  0.19409E-02  0.23110E-02  0.27606E-02  0.32391E-02
  0.36471E-02  0.39015E-02  0.39549E-02  0.36629E-02  0.26551E-02  0.55574E-03
  0.25176E-02  0.53564E-02  0.63171E-02  0.44387E-02  0.12163E-02  0.41811E-02
  0.61275E-02  0.52580E-02  0.24976E-02  0.51960E-03  0.26053E-02  0.36175E-02
  0.39241E-02  0.38872E-02  0.36469E-02  0.32486E-02  0.27732E-02  0.23195E-02
  0.19417E-02  0.16513E-02  0.14514E-02  0.13360E-02  0.12667E-02  0.11790E-02
  0.10048E-02  0.67066E-03  0.10663E-03  0.72595E-03  0.16676E-02  0.24287E-02
  0.31072E-03  0.63395E-03  0.99239E-03  0.98139E-03  0.60434E-03  0.65764E-04
  0.63219E-03  0.11832E-02  0.16040E-02  0.18916E-02  0.20748E-02  0.22073E-02
  0.23485E-02  0.25370E-02  0.27864E-02  0.31032E-02  0.34881E-02  0.39051E-02
  0.42679E-02  0.44868E-02  0.45110E-02  0.42666E-02  0.35582E-02  0.21527E-02
  0.16664E-03  0.19071E-02  0.28869E-02  0.22189E-02  0.73645E-03  0.20720E-02
  0.27835E-02  0.18617E-02  0.14789E-03  0.21193E-02  0.35187E-02  0.42343E-02
  0.44914E-02  0.44797E-02  0.42696E-02  0.39099E-02  0.34884E-02  0.30925E-02
  0.27633E-02  0.25080E-02  0.23272E-02  0.22096E-02  0.21120E-02  0.19671E-02
  0.17117E-02  0.13018E-02  0.71989E-03  0.31406E-04  0.72764E-03  0.12545E-02
  0.19020E-03  0.27061E-03  0.39069E-03  0.29795E-03  0.94856E-04  0.63501E-03
  0.12651E-02  0.18489E-02  0.23131E-02  0.26355E-02  0.28357E-02  0.29632E-02
  0.30777E-02  0.32243E-02  0.34233E-02  0.36807E-02  0.39965E-02  0.43466E-02
  0.46647E-02  0.48646E-02  0.48849E-02  0.46828E-02  0.41780E-02  0.32618E-02
  0.19529E-02  0.56574E-03  0.41874E-03  0.59479E-03  0.30253E-03  0.52587E-03
  0.36837E-03  0.57987E-03  0.19462E-02  0.32438E-02  0.41595E-02  0.46706E-02
  0.48806E-02  0.48666E-02  0.46684E-02  0.43453E-02  0.39822E-02  0.36479E-02
  0.33724E-02  0.31636E-02  0.30223E-02  0.29299E-02  0.28366E-02  0.26753E-02
  0.23895E-02  0.19520E-02  0.13740E-02  0.71740E-03  0.98444E-04  0.34650E-03
  0.55957E-03  0.42751E-03  0.25949E-03  0.10378E-03  0.56638E-03  0.11916E-02
  0.18541E-02  0.24503E-02  0.29160E-02  0.32338E-02  0.34228E-02  0.35259E-02
  0.35986E-02  0.36903E-02  0.38284E-02  0.40194E-02  0.42605E-02  0.45368E-02
  0.48046E-02  0.49913E-02  0.50260E-02  0.48644E-02  0.44753E-02  0.38266E-02
  0.29293E-02  0.19100E-02  0.99563E-03  0.36537E-03  0.63082E-04  0.41148E-03
  0.10319E-02  0.19338E-02  0.29434E-02  0.38359E-02  0.44843E-02  0.48754E-02
  0.50386E-02  0.50025E-02  0.48089E-02  0.45266E-02  0.42281E-02  0.39604E-02
  0.37447E-02  0.35920E-02  0.35022E-02  0.34494E-02  0.33795E-02  0.32299E-02
  0.29511E-02  0.25193E-02  0.19471E-02  0.12942E-02  0.66315E-03  0.18575E-03
  0.13548E-02  0.90155E-03  0.42750E-03  0.26154E-03  0.89118E-03  0.16194E-02
  0.23245E-02  0.29223E-02  0.33679E-02  0.36586E-02  0.38177E-02  0.38832E-02
  0.39049E-02  0.39329E-02  0.40002E-02  0.41165E-02  0.42778E-02  0.44752E-02
  0.46838E-02  0.48498E-02  0.49029E-02  0.47867E-02  0.44749E-02  0.39634E-02
  0.32681E-02  0.24414E-02  0.15728E-02  0.74463E-03  0.63233E-04  0.80556E-03
  0.16287E-02  0.24908E-02  0.33118E-02  0.40028E-02  0.45111E-02  0.48195E-02
  0.49301E-02  0.48671E-02  0.46843E-02  0.44509E-02  0.42216E-02  0.40254E-02
  0.38779E-02  0.37909E-02  0.37610E-02  0.37563E-02  0.37223E-02  0.36028E-02
  0.33529E-02  0.29448E-02  0.23784E-02  0.16972E-02  0.98795E-03  0.38504E-03
  0.20599E-02  0.13676E-02  0.64679E-03  0.34238E-03  0.10950E-02  0.19129E-02
  0.26533E-02  0.32472E-02  0.36662E-02  0.39193E-02  0.40356E-02  0.40521E-02
  0.40136E-02  0.39684E-02  0.39540E-02  0.39862E-02  0.40643E-02  0.41818E-02
  0.43241E-02  0.44550E-02  0.45159E-02  0.44467E-02  0.42103E-02  0.37979E-02
  0.32212E-02  0.25076E-02  0.16993E-02  0.84480E-03  0.14212E-03  0.92768E-03
  0.17792E-02  0.25826E-02  0.32905E-02  0.38614E-02  0.42672E-02  0.44947E-02
  0.45507E-02  0.44704E-02  0.43122E-02  0.41347E-02  0.39759E-02  0.38551E-02
  0.37860E-02  0.37769E-02  0.38170E-02  0.38696E-02  0.38826E-02  0.38057E-02
  0.35951E-02  0.32164E-02  0.26576E-02  0.19463E-02  0.11548E-02  0.43652E-03
  0.25501E-02  0.16943E-02  0.79985E-03  0.38457E-03  0.12245E-02  0.21013E-02
  0.28604E-02  0.34445E-02  0.38346E-02  0.40455E-02  0.41101E-02  0.40668E-02
  0.39577E-02  0.38288E-02  0.37213E-02  0.36600E-02  0.36513E-02  0.36904E-02
  0.37653E-02  0.38516E-02  0.39069E-02  0.38786E-02  0.37217E-02  0.34113E-02
  0.29447E-02  0.23367E-02  0.16168E-02  0.83127E-03  0.25296E-03  0.92473E-03
  0.17098E-02  0.24253E-02  0.30273E-02  0.34861E-02  0.37859E-02  0.39278E-02
  0.39348E-02  0.38505E-02  0.37268E-02  0.36068E-02  0.35181E-02  0.34781E-02
  0.34993E-02  0.35822E-02  0.37053E-02  0.38270E-02  0.38983E-02  0.38723E-02
  0.37048E-02  0.33574E-02  0.28117E-02  0.20856E-02  0.12385E-02  0.43640E-03
  0.28142E-02  0.18518E-02  0.84519E-03  0.41724E-03  0.13345E-02  0.22399E-02
  0.29963E-02  0.35580E-02  0.39122E-02  0.40751E-02  0.40803E-02  0.39674E-02
  0.37782E-02  0.35580E-02  0.33512E-02  0.31912E-02  0.30927E-02  0.30545E-02
  0.30660E-02  0.31088E-02  0.31533E-02  0.31574E-02  0.30750E-02  0.28693E-02
  0.25226E-02  0.20388E-02  0.14429E-02  0.79060E-03  0.37867E-03  0.87274E-03
  0.15286E-02  0.21204E-02  0.25967E-02  0.29324E-02  0.31223E-02  0.31827E-02
  0.31488E-02  0.30660E-02  0.29765E-02  0.29118E-02  0.28948E-02  0.29429E-02
  0.30649E-02  0.32510E-02  0.34688E-02  0.36720E-02  0.38126E-02  0.38453E-02
  0.37260E-02  0.34162E-02  0.28961E-02  0.21766E-02  0.13045E-02  0.43190E-03
  0.28620E-02  0.18332E-02  0.76072E-03  0.49471E-03  0.14818E-02  0.23897E-02
  0.31220E-02  0.36441E-02  0.39492E-02  0.40532E-02  0.39886E-02  0.37958E-02
  0.35195E-02  0.32073E-02  0.29069E-02  0.26560E-02  0.24739E-02  0.23633E-02
  0.23173E-02  0.23226E-02  0.23567E-02  0.23850E-02  0.23644E-02  0.22549E-02
  0.20309E-02  0.16879E-02  0.12462E-02  0.77139E-03  0.51307E-03  0.81407E-03
  0.12926E-02  0.17279E-02  0.20594E-02  0.22666E-02  0.23527E-02  0.23418E-02
  0.22734E-02  0.21910E-02  0.21315E-02  0.21213E-02  0.21795E-02  0.23196E-02
  0.25443E-02  0.28355E-02  0.31540E-02  0.34495E-02  0.36721E-02  0.37749E-02
  0.37145E-02  0.34548E-02  0.29766E-02  0.22848E-02  0.14135E-02  0.47251E-03
  0.27080E-02  0.16415E-02  0.54192E-03  0.67988E-03  0.17010E-02  0.25901E-02
  0.32826E-02  0.37522E-02  0.39956E-02  0.40280E-02  0.38806E-02  0.35969E-02
  0.32286E-02  0.28312E-02  0.24571E-02  0.21454E-02  0.19139E-02  0.17602E-02
  0.16730E-02  0.16417E-02  0.16544E-02  0.16881E-02  0.17079E-02  0.16768E-02
  0.15667E-02  0.13661E-02  0.10896E-02  0.79828E-03  0.64675E-03  0.77921E-03
  0.10540E-02  0.13111E-02  0.14871E-02  0.15661E-02  0.15576E-02  0.14884E-02
  0.13973E-02  0.13257E-02  0.13048E-02  0.13514E-02  0.14774E-02  0.16949E-02
  0.20065E-02  0.23926E-02  0.28112E-02  0.32078E-02  0.35260E-02  0.37132E-02
  0.37247E-02  0.35273E-02  0.31031E-02  0.24531E-02  0.16028E-02  0.62325E-03
  0.23781E-02  0.12945E-02  0.22850E-03  0.98851E-03  0.19994E-02  0.28525E-02
  0.34967E-02  0.39079E-02  0.40829E-02  0.40355E-02  0.37965E-02  0.34141E-02
  0.29518E-02  0.24797E-02  0.20628E-02  0.17486E-02  0.15507E-02  0.14405E-02
  0.13702E-02  0.13125E-02  0.12712E-02  0.12582E-02  0.12671E-02  0.12716E-02
  0.12411E-02  0.11550E-02  0.10160E-02  0.86193E-03  0.76487E-03  0.77830E-03
  0.86359E-03  0.93991E-03  0.95916E-03  0.91410E-03  0.82537E-03  0.73271E-03
  0.68496E-03  0.70455E-03  0.76410E-03  0.83780E-03  0.95283E-03  0.11703E-02
  0.15200E-02  0.19785E-02  0.24920E-02  0.29947E-02  0.34177E-02  0.36990E-02
  0.37908E-02  0.36617E-02  0.32961E-02  0.26951E-02  0.18814E-02  0.90843E-03
  0.18972E-02  0.81471E-03  0.35078E-03  0.14078E-02  0.23772E-02  0.31792E-02
  0.37667E-02  0.41144E-02  0.42176E-02  0.40889E-02  0.37585E-02  0.32784E-02
  0.27243E-02  0.21880E-02  0.17638E-02  0.15234E-02  0.14637E-02  0.14919E-02
  0.15060E-02  0.14606E-02  0.13681E-02  0.12688E-02  0.11954E-02  0.11545E-02
  0.11276E-02  0.10875E-02  0.10196E-02  0.93320E-03  0.85359E-03  0.79767E-03
  0.75258E-03  0.68533E-03  0.57610E-03  0.44815E-03  0.39304E-03  0.49753E-03
  0.68747E-03  0.85941E-03  0.94817E-03  0.93076E-03  0.85532E-03  0.87499E-03
  0.11471E-02  0.16395E-02  0.22390E-02  0.28454E-02  0.33715E-02  0.37460E-02
  0.39193E-02  0.38616E-02  0.35590E-02  0.30143E-02  0.22516E-02  0.13179E-02
  0.12950E-02  0.26234E-03  0.88907E-03  0.19135E-02  0.28259E-02  0.35661E-02
  0.40878E-02  0.43645E-02  0.43918E-02  0.41836E-02  0.37695E-02  0.32014E-02
  0.25625E-02  0.19697E-02  0.15654E-02  0.14531E-02  0.15662E-02  0.17297E-02
  0.18231E-02  0.18064E-02  0.16965E-02  0.15379E-02  0.13780E-02  0.12513E-02
  0.11679E-02  0.11105E-02  0.10532E-02  0.98344E-03  0.90278E-03  0.81425E-03
  0.71206E-03  0.58857E-03  0.47066E-03  0.46955E-03  0.65250E-03  0.92071E-03
  0.11799E-02  0.13648E-02  0.14238E-02  0.13303E-02  0.11066E-02  0.87317E-03
  0.92850E-03  0.14021E-02  0.20745E-02  0.27741E-02  0.33912E-02  0.38501E-02
  0.41029E-02  0.41206E-02  0.38884E-02  0.34086E-02  0.27066E-02  0.18279E-02
  0.64733E-03  0.45320E-03  0.14646E-02  0.24372E-02  0.32932E-02  0.39745E-02
  0.44328E-02  0.46398E-02  0.45929E-02  0.43096E-02  0.38213E-02  0.31787E-02
  0.24666E-02  0.18205E-02  0.14367E-02  0.14467E-02  0.16927E-02  0.19448E-02
  0.20893E-02  0.20955E-02  0.19803E-02  0.17862E-02  0.15652E-02  0.13670E-02
  0.12236E-02  0.11318E-02  0.10624E-02  0.98998E-03  0.90548E-03  0.80756E-03
  0.69583E-03  0.58534E-03  0.55188E-03  0.69813E-03  0.98543E-03  0.13098E-02
  0.15935E-02  0.17766E-02  0.18124E-02  0.16756E-02  0.13772E-02  0.99956E-03
  0.84430E-03  0.12690E-02  0.20004E-02  0.27756E-02  0.34678E-02  0.40013E-02
  0.43293E-02  0.44210E-02  0.42573E-02  0.38393E-02  0.31938E-02  0.23688E-02
  0.19405E-03  0.99905E-03  0.19621E-02  0.28761E-02  0.36814E-02  0.43189E-02
  0.47350E-02  0.48956E-02  0.47945E-02  0.44506E-02  0.39001E-02  0.31978E-02
  0.24280E-02  0.17302E-02  0.13360E-02  0.14119E-02  0.17344E-02  0.20375E-02
  0.22118E-02  0.22303E-02  0.21084E-02  0.18877E-02  0.16243E-02  0.13788E-02
  0.11968E-02  0.10843E-02  0.10087E-02  0.93699E-03  0.85606E-03  0.76318E-03
  0.65706E-03  0.56383E-03  0.58827E-03  0.81282E-03  0.11591E-02  0.15228E-02
  0.18268E-02  0.20116E-02  0.20337E-02  0.18705E-02  0.15307E-02  0.10834E-02
  0.82248E-03  0.12279E-02  0.20046E-02  0.28344E-02  0.35855E-02  0.41816E-02
  0.45709E-02  0.47162E-02  0.45970E-02  0.42179E-02  0.36123E-02  0.28337E-02
  0.58353E-03  0.14499E-02  0.23260E-02  0.31625E-02  0.39106E-02  0.45128E-02
  0.49114E-02  0.50617E-02  0.49444E-02  0.45708E-02  0.39814E-02  0.32400E-02
  0.24333E-02  0.16913E-02  0.12444E-02  0.13093E-02  0.16561E-02  0.19816E-02
  0.21680E-02  0.21862E-02  0.20500E-02  0.18024E-02  0.15066E-02  0.12352E-02
  0.10469E-02  0.94715E-03  0.88585E-03  0.82030E-03  0.74943E-03  0.67938E-03
  0.59064E-03  0.48528E-03  0.49498E-03  0.75037E-03  0.11389E-02  0.15378E-02
  0.18652E-02  0.20597E-02  0.20786E-02  0.19029E-02  0.15437E-02  0.10758E-02
  0.81878E-03  0.12619E-02  0.20673E-02  0.29271E-02  0.37161E-02  0.43519E-02
  0.47709E-02  0.49312E-02  0.48193E-02  0.44535E-02  0.38781E-02  0.31511E-02
  0.10206E-02  0.17589E-02  0.25084E-02  0.32489E-02  0.39358E-02  0.45080E-02
  0.49039E-02  0.50711E-02  0.49757E-02  0.46147E-02  0.40248E-02  0.32768E-02
  0.24615E-02  0.16943E-02  0.11737E-02  0.11562E-02  0.14766E-02  0.17955E-02
  0.19743E-02  0.19774E-02  0.18153E-02  0.15327E-02  0.12065E-02  0.93957E-03
  0.81693E-03  0.79983E-03  0.76608E-03  0.67221E-03  0.59276E-03  0.59705E-03
  0.59863E-03  0.49655E-03  0.35544E-03  0.51440E-03  0.92680E-03  0.13659E-02
  0.17267E-02  0.19420E-02  0.19709E-02  0.17992E-02  0.14456E-02  0.10039E-02
  0.84110E-03  0.13486E-02  0.21596E-02  0.30201E-02  0.38141E-02  0.44505E-02
  0.48566E-02  0.49932E-02  0.48616E-02  0.44944E-02  0.39432E-02  0.32698E-02
  0.11331E-02  0.16231E-02  0.22170E-02  0.29104E-02  0.36195E-02  0.42351E-02
  0.46730E-02  0.48830E-02  0.48362E-02  0.45258E-02  0.39808E-02  0.32686E-02
  0.24797E-02  0.17182E-02  0.11418E-02  0.10011E-02  0.12441E-02  0.15236E-02
  0.16732E-02  0.16462E-02  0.14456E-02  0.11187E-02  0.78400E-03  0.66482E-03
  0.80540E-03  0.92753E-03  0.86441E-03  0.62208E-03  0.44685E-03  0.63975E-03
  0.85302E-03  0.85633E-03  0.63711E-03  0.37679E-03  0.59369E-03  0.10561E-02
  0.14578E-02  0.17039E-02  0.17557E-02  0.16078E-02  0.12903E-02  0.92475E-03
  0.90352E-03  0.14535E-02  0.22413E-02  0.30683E-02  0.38242E-02  0.44151E-02
  0.47698E-02  0.48568E-02  0.46804E-02  0.42659E-02  0.36609E-02  0.29501E-02
  0.25151E-03  0.31573E-03  0.76643E-03  0.16048E-02  0.26069E-02  0.35083E-02
  0.41440E-02  0.44698E-02  0.45028E-02  0.42705E-02  0.38074E-02  0.31723E-02
  0.24474E-02  0.17288E-02  0.11437E-02  0.89315E-03  0.10176E-02  0.12245E-02
  0.13247E-02  0.12566E-02  0.10126E-02  0.66278E-03  0.54302E-03  0.90191E-03
  0.12831E-02  0.14312E-02  0.12524E-02  0.79167E-03  0.44458E-03  0.86975E-03
  0.13115E-02  0.14530E-02  0.12628E-02  0.84293E-03  0.49348E-03  0.72652E-03
  0.11354E-02  0.14100E-02  0.14923E-02  0.13862E-02  0.11354E-02  0.88640E-03
  0.98931E-03  0.15343E-02  0.22662E-02  0.30234E-02  0.36996E-02  0.42070E-02
  0.44832E-02  0.44898E-02  0.41934E-02  0.35684E-02  0.26536E-02  0.16181E-02
  0.23908E-02  0.29426E-02  0.25201E-02  0.12093E-02  0.53917E-03  0.21084E-02
  0.32168E-02  0.38041E-02  0.39745E-02  0.38426E-02  0.34828E-02  0.29536E-02
  0.23264E-02  0.16895E-02  0.11507E-02  0.85234E-03  0.85496E-03  0.96623E-03
  0.10035E-02  0.89220E-03  0.62918E-03  0.45493E-03  0.87084E-03  0.14714E-02
  0.19178E-02  0.20211E-02  0.17015E-02  0.10387E-02  0.56119E-03  0.11606E-02
  0.17957E-02  0.20673E-02  0.19208E-02  0.14508E-02  0.87500E-03  0.61399E-03
  0.86691E-03  0.11370E-02  0.12469E-02  0.11927E-02  0.10273E-02  0.89850E-03
  0.10623E-02  0.15523E-02  0.21932E-02  0.28475E-02  0.34147E-02  0.38170E-02
  0.39918E-02  0.38581E-02  0.32885E-02  0.21633E-02  0.53677E-03  0.13025E-02
  0.65177E-02  0.77263E-02  0.72239E-02  0.51960E-02  0.24516E-02  0.15580E-03
  0.19166E-02  0.29017E-02  0.32698E-02  0.32559E-02  0.30059E-02  0.25963E-02
  0.20922E-02  0.15725E-02  0.11282E-02  0.85523E-03  0.78734E-03  0.81088E-03
  0.78824E-03  0.65483E-03  0.47593E-03  0.67451E-03  0.12800E-02  0.19327E-02
  0.23752E-02  0.24154E-02  0.19804E-02  0.11778E-02  0.64023E-03  0.13633E-02
  0.21214E-02  0.24835E-02  0.23814E-02  0.19058E-02  0.12660E-02  0.77434E-03
  0.75312E-03  0.95510E-03  0.10757E-02  0.10697E-02  0.98262E-03  0.93382E-03
  0.10897E-02  0.14809E-02  0.19971E-02  0.25230E-02  0.29665E-02  0.32562E-02
  0.33101E-02  0.29707E-02  0.19820E-02  0.15927E-03  0.25624E-02  0.54625E-02
  0.10325E-01  0.11975E-01  0.11358E-01  0.87499E-02  0.51918E-02  0.18534E-02
  0.55431E-03  0.18899E-02  0.24426E-02  0.25389E-02  0.23927E-02  0.21055E-02
  0.17408E-02  0.13659E-02  0.10525E-02  0.85848E-03  0.78732E-03  0.76641E-03
  0.71222E-03  0.59717E-03  0.55184E-03  0.86827E-03  0.14569E-02  0.20603E-02
  0.24441E-02  0.24271E-02  0.19488E-02  0.11259E-02  0.61919E-03  0.13733E-02
  0.21355E-02  0.25179E-02  0.24553E-02  0.20282E-02  0.14271E-02  0.91636E-03
  0.76273E-03  0.88090E-03  0.99313E-03  0.10180E-02  0.97965E-03  0.95677E-03
  0.10535E-02  0.13113E-02  0.16745E-02  0.20542E-02  0.23701E-02  0.25518E-02
  0.24897E-02  0.19535E-02  0.59080E-03  0.19152E-02  0.54207E-02  0.91828E-02
  0.11115E-01  0.12728E-01  0.12120E-01  0.95696E-02  0.60794E-02  0.27786E-02
  0.38854E-03  0.99140E-03  0.15815E-02  0.17339E-02  0.16731E-02  0.15065E-02
  0.12924E-02  0.10834E-02  0.92491E-03  0.83750E-03  0.80332E-03  0.77743E-03
  0.71874E-03  0.62492E-03  0.60173E-03  0.84256E-03  0.12989E-02  0.17668E-02
  0.20500E-02  0.20032E-02  0.15834E-02  0.89097E-03  0.49603E-03  0.11385E-02
  0.17633E-02  0.20846E-02  0.20543E-02  0.17315E-02  0.12655E-02  0.87461E-03
  0.76364E-03  0.86201E-03  0.96576E-03  0.10042E-02  0.98540E-03  0.95112E-03
  0.96054E-03  0.10605E-02  0.12464E-02  0.14660E-02  0.16548E-02  0.17456E-02
  0.16202E-02  0.10359E-02  0.40010E-03  0.28917E-02  0.63634E-02  0.10050E-01
  0.73035E-02  0.83199E-02  0.79624E-02  0.63845E-02  0.41890E-02  0.20821E-02
  0.53792E-03  0.37751E-03  0.76665E-03  0.88990E-03  0.89519E-03  0.85550E-03
  0.81034E-03  0.78572E-03  0.78755E-03  0.80269E-03  0.81120E-03  0.79426E-03
  0.73794E-03  0.64218E-03  0.55375E-03  0.60645E-03  0.84679E-03  0.11273E-02
  0.12957E-02  0.12569E-02  0.98620E-03  0.54390E-03  0.27974E-03  0.68067E-03
  0.10571E-02  0.12545E-02  0.12518E-02  0.10746E-02  0.81618E-03  0.65458E-03
  0.70830E-03  0.84975E-03  0.95699E-03  0.10007E-02  0.98596E-03  0.92889E-03
  0.85348E-03  0.79187E-03  0.77530E-03  0.80922E-03  0.86301E-03  0.88451E-03
  0.78463E-03  0.40037E-03  0.58392E-03  0.22095E-02  0.44313E-02  0.67406E-02
  0.51134E-03  0.84105E-03  0.12408E-02  0.13217E-02  0.10524E-02  0.61723E-03
  0.24358E-03  0.53691E-04  0.88913E-04  0.19127E-03  0.30649E-03  0.41951E-03
  0.53036E-03  0.63530E-03  0.72378E-03  0.78528E-03  0.81249E-03  0.80047E-03
  0.74507E-03  0.64320E-03  0.50647E-03  0.40601E-03  0.46184E-03  0.61106E-03
  0.71112E-03  0.69550E-03  0.55028E-03  0.29776E-03  0.32313E-08  0.26048E-03
  0.43507E-03  0.53206E-03  0.56043E-03  0.50645E-03  0.42662E-03  0.48426E-03
  0.66799E-03  0.84237E-03  0.95422E-03  0.99952E-03  0.98484E-03  0.91682E-03
  0.80386E-03  0.65800E-03  0.49519E-03  0.33287E-03  0.18450E-03  0.61742E-04
  0.95543E-05  0.71246E-04  0.35173E-03  0.83891E-03  0.13607E-02  0.16396E-02
  0.73035E-02  0.83199E-02  0.79624E-02  0.63845E-02  0.41890E-02  0.20821E-02
  0.53792E-03  0.37751E-03  0.76665E-03  0.88990E-03  0.89519E-03  0.85550E-03
  0.81034E-03  0.78572E-03  0.78755E-03  0.80269E-03  0.81120E-03  0.79426E-03
  0.73794E-03  0.64218E-03  0.55375E-03  0.60645E-03  0.84679E-03  0.11273E-02
  0.12957E-02  0.12569E-02  0.98620E-03  0.54391E-03  0.27974E-03  0.68067E-03
  0.10571E-02  0.12545E-02  0.12518E-02  0.10746E-02  0.81618E-03  0.65458E-03
  0.70830E-03  0.84975E-03  0.95699E-03  0.10007E-02  0.98596E-03  0.92889E-03
  0.85348E-03  0.79187E-03  0.77530E-03  0.80922E-03  0.86300E-03  0.88451E-03
  0.78463E-03  0.40037E-03  0.58392E-03  0.22095E-02  0.44313E-02  0.67406E-02
  0.11115E-01  0.12728E-01  0.12120E-01  0.95696E-02  0.60794E-02  0.27786E-02
  0.38854E-03  0.99140E-03  0.15815E-02  0.17339E-02  0.16731E-02  0.15065E-02
  0.12924E-02  0.10834E-02  0.92491E-03  0.83750E-03  0.80332E-03  0.77743E-03
  0.71874E-03  0.62492E-03  0.60173E-03  0.84256E-03  0.12989E-02  0.17668E-02
  0.20500E-02  0.20032E-02  0.15834E-02  0.89097E-03  0.49603E-03  0.11385E-02
  0.17633E-02  0.20846E-02  0.20543E-02  0.17315E-02  0.12655E-02  0.87461E-03
  0.76364E-03  0.86201E-03  0.96576E-03  0.10042E-02  0.98540E-03  0.95112E-03
  0.96054E-03  0.10605E-02  0.12464E-02  0.14660E-02  0.16548E-02  0.17456E-02
  0.16202E-02  0.10359E-02  0.40010E-03  0.28917E-02  0.63634E-02  0.10050E-01
  0.10325E-01  0.11975E-01  0.11358E-01  0.87499E-02  0.51918E-02  0.18534E-02
  0.55431E-03  0.18899E-02  0.24426E-02  0.25389E-02  0.23927E-02  0.21055E-02
  0.17408E-02  0.13659E-02  0.10525E-02  0.85848E-03  0.78732E-03  0.76641E-03
  0.71222E-03  0.59717E-03  0.55184E-03  0.86827E-03  0.14569E-02  0.20603E-02
  0.24441E-02  0.24271E-02  0.19488E-02  0.11259E-02  0.61919E-03  0.13733E-02
  0.21355E-02  0.25179E-02  0.24553E-02  0.20282E-02  0.14271E-02  0.91636E-03
  0.76273E-03  0.88090E-03  0.99313E-03  0.10180E-02  0.97965E-03  0.95677E-03
  0.10535E-02  0.13113E-02  0.16745E-02  0.20542E-02  0.23701E-02  0.25518E-02
  0.24897E-02  0.19535E-02  0.59080E-03  0.19152E-02  0.54207E-02  0.91828E-02
  0.65177E-02  0.77263E-02  0.72239E-02  0.51960E-02  0.24516E-02  0.15580E-03
  0.19166E-02  0.29017E-02  0.32698E-02  0.32559E-02  0.30059E-02  0.25963E-02
  0.20922E-02  0.15725E-02  0.11282E-02  0.85523E-03  0.78734E-03  0.81088E-03
  0.78824E-03  0.65483E-03  0.47593E-03  0.67451E-03  0.12800E-02  0.19327E-02
  0.23752E-02  0.24154E-02  0.19804E-02  0.11778E-02  0.64023E-03  0.13633E-02
  0.21214E-02  0.24835E-02  0.23814E-02  0.19058E-02  0.12660E-02  0.77434E-03
  0.75312E-03  0.95510E-03  0.10757E-02  0.10697E-02  0.98262E-03  0.93382E-03
  0.10897E-02  0.14809E-02  0.19971E-02  0.25230E-02  0.29665E-02  0.32562E-02
  0.33101E-02  0.29707E-02  0.19820E-02  0.15927E-03  0.25624E-02  0.54625E-02
  0.23908E-02  0.29426E-02  0.25201E-02  0.12093E-02  0.53917E-03  0.21084E-02
  0.32168E-02  0.38041E-02  0.39745E-02  0.38426E-02  0.34828E-02  0.29536E-02
  0.23264E-02  0.16895E-02  0.11507E-02  0.85234E-03  0.85496E-03  0.96623E-03
  0.10035E-02  0.89220E-03  0.62918E-03  0.45493E-03  0.87084E-03  0.14714E-02
  0.19178E-02  0.20211E-02  0.17015E-02  0.10387E-02  0.56119E-03  0.11606E-02
  0.17957E-02  0.20673E-02  0.19208E-02  0.14508E-02  0.87500E-03  0.61399E-03
  0.86691E-03  0.11370E-02  0.12469E-02  0.11927E-02  0.10273E-02  0.89850E-03
  0.10623E-02  0.15523E-02  0.21932E-02  0.28475E-02  0.34147E-02  0.38170E-02
  0.39918E-02  0.38581E-02  0.32885E-02  0.21633E-02  0.53677E-03  0.13025E-02
  0.25150E-03  0.31573E-03  0.76643E-03  0.16048E-02  0.26069E-02  0.35083E-02
  0.41440E-02  0.44698E-02  0.45028E-02  0.42705E-02  0.38074E-02  0.31723E-02
  0.24474E-02  0.17288E-02  0.11437E-02  0.89315E-03  0.10176E-02  0.12245E-02
  0.13247E-02  0.12566E-02  0.10126E-02  0.66278E-03  0.54302E-03  0.90191E-03
  0.12831E-02  0.14312E-02  0.12524E-02  0.79167E-03  0.44458E-03  0.86975E-03
  0.13115E-02  0.14530E-02  0.12628E-02  0.84293E-03  0.49348E-03  0.72652E-03
  0.11354E-02  0.14100E-02  0.14923E-02  0.13862E-02  0.11354E-02  0.88640E-03
  0.98931E-03  0.15343E-02  0.22662E-02  0.30234E-02  0.36996E-02  0.42070E-02
  0.44832E-02  0.44898E-02  0.41934E-02  0.35684E-02  0.26536E-02  0.16181E-02
  0.11331E-02  0.16231E-02  0.22170E-02  0.29104E-02  0.36195E-02  0.42351E-02
  0.46730E-02  0.48830E-02  0.48362E-02  0.45258E-02  0.39808E-02  0.32686E-02
  0.24797E-02  0.17182E-02  0.11418E-02  0.10011E-02  0.12441E-02  0.15236E-02
  0.16732E-02  0.16462E-02  0.14456E-02  0.11187E-02  0.78400E-03  0.66481E-03
  0.80540E-03  0.92752E-03  0.86441E-03  0.62208E-03  0.44685E-03  0.63975E-03
  0.85302E-03  0.85633E-03  0.63711E-03  0.37679E-03  0.59369E-03  0.10561E-02
  0.14578E-02  0.17039E-02  0.17557E-02  0.16078E-02  0.12903E-02  0.92474E-03
  0.90352E-03  0.14535E-02  0.22413E-02  0.30683E-02  0.38242E-02  0.44151E-02
  0.47698E-02  0.48568E-02  0.46804E-02  0.42659E-02  0.36609E-02  0.29501E-02
  0.10206E-02  0.17589E-02  0.25084E-02  0.32489E-02  0.39358E-02  0.45080E-02
  0.49039E-02  0.50711E-02  0.49757E-02  0.46147E-02  0.40248E-02  0.32768E-02
  0.24615E-02  0.16943E-02  0.11737E-02  0.11562E-02  0.14766E-02  0.17955E-02
  0.19743E-02  0.19774E-02  0.18153E-02  0.15327E-02  0.12065E-02  0.93957E-03
  0.81693E-03  0.79983E-03  0.76608E-03  0.67221E-03  0.59276E-03  0.59705E-03
  0.59863E-03  0.49655E-03  0.35544E-03  0.51441E-03  0.92680E-03  0.13659E-02
  0.17267E-02  0.19420E-02  0.19709E-02  0.17992E-02  0.14456E-02  0.10039E-02
  0.84110E-03  0.13486E-02  0.21596E-02  0.30201E-02  0.38140E-02  0.44505E-02
  0.48566E-02  0.49932E-02  0.48616E-02  0.44944E-02  0.39432E-02  0.32698E-02
  0.58353E-03  0.14499E-02  0.23260E-02  0.31625E-02  0.39106E-02  0.45128E-02
  0.49114E-02  0.50617E-02  0.49444E-02  0.45708E-02  0.39814E-02  0.32400E-02
  0.24333E-02  0.16913E-02  0.12444E-02  0.13093E-02  0.16561E-02  0.19816E-02
  0.21680E-02  0.21862E-02  0.20500E-02  0.18024E-02  0.15066E-02  0.12352E-02
  0.10469E-02  0.94715E-03  0.88585E-03  0.82030E-03  0.74943E-03  0.67938E-03
  0.59064E-03  0.48528E-03  0.49498E-03  0.75037E-03  0.11389E-02  0.15378E-02
  0.18652E-02  0.20597E-02  0.20786E-02  0.19029E-02  0.15437E-02  0.10758E-02
  0.81878E-03  0.12619E-02  0.20673E-02  0.29271E-02  0.37161E-02  0.43519E-02
  0.47709E-02  0.49312E-02  0.48193E-02  0.44535E-02  0.38781E-02  0.31511E-02
  0.19405E-03  0.99905E-03  0.19621E-02  0.28761E-02  0.36814E-02  0.43189E-02
  0.47350E-02  0.48956E-02  0.47945E-02  0.44506E-02  0.39001E-02  0.31978E-02
  0.24280E-02  0.17302E-02  0.13360E-02  0.14119E-02  0.17344E-02  0.20375E-02
  0.22118E-02  0.22303E-02  0.21084E-02  0.18877E-02  0.16243E-02  0.13788E-02
  0.11968E-02  0.10843E-02  0.10087E-02  0.93699E-03  0.85606E-03  0.76318E-03
  0.65706E-03  0.56383E-03  0.58827E-03  0.81282E-03  0.11591E-02  0.15228E-02
  0.18268E-02  0.20116E-02  0.20337E-02  0.18705E-02  0.15307E-02  0.10834E-02
  0.82248E-03  0.12279E-02  0.20046E-02  0.28344E-02  0.35855E-02  0.41816E-02
  0.45709E-02  0.47162E-02  0.45970E-02  0.42179E-02  0.36123E-02  0.28337E-02
  0.64733E-03  0.45320E-03  0.14646E-02  0.24372E-02  0.32932E-02  0.39745E-02
  0.44328E-02  0.46398E-02  0.45929E-02  0.43096E-02  0.38213E-02  0.31787E-02
  0.24666E-02  0.18205E-02  0.14367E-02  0.14467E-02  0.16927E-02  0.19448E-02
  0.20893E-02  0.20955E-02  0.19803E-02  0.17862E-02  0.15652E-02  0.13670E-02
  0.12236E-02  0.11318E-02  0.10624E-02  0.98998E-03  0.90548E-03  0.80755E-03
  0.69583E-03  0.58534E-03  0.55188E-03  0.69814E-03  0.98543E-03  0.13098E-02
  0.15935E-02  0.17766E-02  0.18124E-02  0.16756E-02  0.13772E-02  0.99956E-03
  0.84430E-03  0.12690E-02  0.20004E-02  0.27756E-02  0.34678E-02  0.40013E-02
  0.43293E-02  0.44210E-02  0.42573E-02  0.38393E-02  0.31938E-02  0.23688E-02
  0.12950E-02  0.26234E-03  0.88907E-03  0.19135E-02  0.28259E-02  0.35662E-02
  0.40878E-02  0.43645E-02  0.43918E-02  0.41836E-02  0.37695E-02  0.32014E-02
  0.25625E-02  0.19697E-02  0.15654E-02  0.14531E-02  0.15662E-02  0.17297E-02
  0.18231E-02  0.18064E-02  0.16965E-02  0.15379E-02  0.13780E-02  0.12513E-02
  0.11679E-02  0.11105E-02  0.10532E-02  0.98344E-03  0.90278E-03  0.81425E-03
  0.71206E-03  0.58857E-03  0.47066E-03  0.46955E-03  0.65250E-03  0.92071E-03
  0.11799E-02  0.13648E-02  0.14238E-02  0.13303E-02  0.11066E-02  0.87317E-03
  0.92850E-03  0.14021E-02  0.20745E-02  0.27741E-02  0.33912E-02  0.38501E-02
  0.41029E-02  0.41206E-02  0.38884E-02  0.34086E-02  0.27066E-02  0.18279E-02
  0.18972E-02  0.81471E-03  0.35078E-03  0.14078E-02  0.23772E-02  0.31792E-02