       #
       # Generated by the Wannier90 code http://www.wannier.org
       # On 13May2024 at 14:14:03 
       #
CRYSTAL
PRIMVEC
   2.7281430   0.0000000   0.0000000
   0.0000000   2.7281430   0.0000000
   0.0000000   0.0000000   3.7789840
CONVVEC
   2.7281430   0.0000000   0.0000000
   0.0000000   2.7281430   0.0000000
   0.0000000   0.0000000   3.7789840
PRIMCOORD
     2  1
Fe      0.0000000   0.0000000   0.0000000
Pt      1.3640715   1.3640715   1.8894920


BEGIN_BLOCK_DATAGRID_3D
3D_field
BEGIN_DATAGRID_3D_UNKNOWN
    54    54    80
   -2.829185   -2.829185   -3.873459
   5.3552437   0.0000000   0.0000000
   0.0000000   5.3552437   0.0000000
   0.0000000   0.0000000   7.4634934
  0.42649E-02  0.44830E-02  0.38736E-02  0.26582E-02  0.13683E-02  0.84973E-03
  0.97390E-03  0.78850E-03  0.45777E-03  0.71284E-03  0.11669E-02  0.14845E-02
  0.16320E-02  0.16201E-02  0.14635E-02  0.11821E-02  0.80384E-03  0.36135E-03
  0.19999E-03  0.72342E-03  0.12672E-02  0.16738E-02  0.16680E-02  0.91429E-03
  0.10828E-02  0.38136E-02  0.69132E-02  0.93704E-02  0.10280E-01  0.92874E-02
  0.67797E-02  0.36724E-02  0.94772E-03  0.92549E-03  0.16706E-02  0.16603E-02
  0.12445E-02  0.69742E-03  0.18961E-03  0.39795E-03  0.83231E-03  0.12005E-02
  0.14689E-02  0.16090E-02  0.16012E-02  0.14310E-02  0.10853E-02  0.58600E-03
  0.33955E-03  0.78526E-03  0.10027E-02  0.91271E-03  0.14166E-02  0.26426E-02
  0.44812E-02  0.49394E-02  0.44800E-02  0.32589E-02  0.18278E-02  0.10937E-02
  0.11710E-02  0.10126E-02  0.59380E-03  0.62945E-03  0.10812E-02  0.14458E-02
  0.16516E-02  0.17033E-02  0.16120E-02  0.13970E-02  0.10874E-02  0.70691E-03
  0.27290E-03  0.30338E-03  0.83793E-03  0.13293E-02  0.16358E-02  0.16433E-02
  0.13288E-02  0.82872E-03  0.58431E-03  0.84080E-03  0.10009E-02  0.87251E-03
  0.67677E-03  0.92569E-03  0.13915E-02  0.16734E-02  0.16380E-02  0.13111E-02
  0.80690E-03  0.26868E-03  0.31706E-03  0.75523E-03  0.11327E-02  0.14342E-02
  0.16365E-02  0.17105E-02  0.16369E-02  0.14048E-02  0.10049E-02  0.49065E-03
  0.50228E-03  0.10005E-02  0.11946E-02  0.12046E-02  0.19857E-02  0.33563E-02
  0.38692E-02  0.44775E-02  0.41920E-02  0.31252E-02  0.18491E-02  0.12829E-02
  0.13592E-02  0.11568E-02  0.68136E-03  0.61449E-03  0.10600E-02  0.14549E-02
  0.17060E-02  0.18152E-02  0.17897E-02  0.16470E-02  0.14162E-02  0.11165E-02
  0.74722E-03  0.32658E-03  0.30613E-03  0.79219E-03  0.13487E-02  0.20850E-02
  0.31983E-02  0.47695E-02  0.65723E-02  0.80745E-02  0.86989E-02  0.81770E-02
  0.67270E-02  0.49106E-02  0.32856E-02  0.21183E-02  0.13451E-02  0.76249E-03
  0.24667E-03  0.34055E-03  0.78937E-03  0.11680E-02  0.14698E-02  0.16965E-02
  0.18291E-02  0.18388E-02  0.17081E-02  0.14294E-02  0.99549E-03  0.47661E-03
  0.58784E-03  0.11301E-02  0.13679E-02  0.14011E-02  0.20926E-02  0.33499E-02
  0.26490E-02  0.32520E-02  0.31210E-02  0.23692E-02  0.15839E-02  0.14416E-02
  0.14924E-02  0.11905E-02  0.67931E-03  0.64301E-03  0.11011E-02  0.15123E-02
  0.17966E-02  0.19553E-02  0.19925E-02  0.19229E-02  0.17726E-02  0.15569E-02
  0.12691E-02  0.90658E-03  0.50492E-03  0.23611E-03  0.69690E-03  0.17534E-02
  0.36412E-02  0.64422E-02  0.96783E-02  0.12351E-01  0.13421E-01  0.12432E-01
  0.98021E-02  0.65576E-02  0.37132E-02  0.17752E-02  0.67310E-03  0.14898E-03
  0.50232E-03  0.93256E-03  0.13107E-02  0.16082E-02  0.18283E-02  0.19775E-02
  0.20403E-02  0.19900E-02  0.18119E-02  0.15014E-02  0.10519E-02  0.51769E-03
  0.56640E-03  0.11454E-02  0.14780E-02  0.15094E-02  0.18243E-02  0.26680E-02
  0.13498E-02  0.18141E-02  0.18395E-02  0.15796E-02  0.14779E-02  0.15864E-02
  0.14992E-02  0.10839E-02  0.60335E-03  0.72643E-03  0.12045E-02  0.16195E-02
  0.19242E-02  0.21202E-02  0.22088E-02  0.22015E-02  0.21206E-02  0.19789E-02
  0.17695E-02  0.14901E-02  0.11698E-02  0.83031E-03  0.39770E-03  0.68552E-03
  0.24438E-02  0.52171E-02  0.85035E-02  0.11249E-01  0.12344E-01  0.11304E-01
  0.85881E-02  0.52944E-02  0.24867E-02  0.67011E-03  0.34091E-03  0.82321E-03
  0.11830E-02  0.15186E-02  0.18101E-02  0.20283E-02  0.21747E-02  0.22559E-02
  0.22586E-02  0.21596E-02  0.19470E-02  0.16191E-02  0.11704E-02  0.62600E-03
  0.45628E-03  0.10151E-02  0.14614E-02  0.15891E-02  0.15948E-02  0.18280E-02
  0.83219E-03  0.10806E-02  0.12757E-02  0.14400E-02  0.15871E-02  0.15847E-02
  0.13164E-02  0.84533E-03  0.55106E-03  0.88619E-03  0.13645E-02  0.17691E-02
  0.20784E-02  0.22922E-02  0.24102E-02  0.24415E-02  0.24054E-02  0.23154E-02
  0.21697E-02  0.19695E-02  0.17456E-02  0.15355E-02  0.12893E-02  0.78934E-03
  0.44015E-03  0.22545E-02  0.45778E-02  0.65743E-02  0.73780E-02  0.66066E-02
  0.46253E-02  0.22917E-02  0.40361E-03  0.74509E-03  0.12758E-02  0.15380E-02
  0.17612E-02  0.19973E-02  0.22080E-02  0.23616E-02  0.24560E-02  0.24928E-02
  0.24580E-02  0.23315E-02  0.21038E-02  0.17750E-02  0.13434E-02  0.81688E-03
  0.38542E-03  0.74052E-03  0.12552E-02  0.15470E-02  0.15884E-02  0.15110E-02
  0.97390E-03  0.11722E-02  0.13621E-02  0.14962E-02  0.15024E-02  0.13175E-02
  0.95319E-03  0.58410E-03  0.67438E-03  0.11180E-02  0.15670E-02  0.19441E-02
  0.22368E-02  0.24421E-02  0.25594E-02  0.25971E-02  0.25733E-02  0.25058E-02
  0.24030E-02  0.22706E-02  0.21337E-02  0.20367E-02  0.19890E-02  0.18880E-02
  0.15269E-02  0.75945E-03  0.44376E-03  0.14072E-02  0.18189E-02  0.14182E-02
  0.42810E-03  0.70322E-03  0.14941E-02  0.18697E-02  0.19818E-02  0.20397E-02
  0.21474E-02  0.22953E-02  0.24378E-02  0.25485E-02  0.26205E-02  0.26453E-02
  0.26046E-02  0.24801E-02  0.22632E-02  0.19546E-02  0.15569E-02  0.10769E-02
  0.56687E-03  0.42517E-03  0.85904E-03  0.12539E-02  0.14582E-02  0.14742E-02
  0.79526E-03  0.10198E-02  0.11635E-02  0.11955E-02  0.10857E-02  0.84241E-03
  0.57719E-03  0.60504E-03  0.96621E-03  0.13962E-02  0.17925E-02  0.21219E-02
  0.23718E-02  0.25382E-02  0.26227E-02  0.26341E-02  0.25908E-02  0.25170E-02
  0.24337E-02  0.23537E-02  0.22923E-02  0.22808E-02  0.23529E-02  0.24955E-02
  0.26166E-02  0.25965E-02  0.24034E-02  0.21548E-02  0.20373E-02  0.21427E-02
  0.23840E-02  0.25759E-02  0.25987E-02  0.24821E-02  0.23449E-02  0.22801E-02
  0.23012E-02  0.23738E-02  0.24648E-02  0.25574E-02  0.26369E-02  0.26818E-02
  0.26680E-02  0.25774E-02  0.24013E-02  0.21385E-02  0.17939E-02  0.13788E-02
  0.91895E-03  0.49524E-03  0.43451E-03  0.74385E-03  0.10132E-02  0.11402E-02
  0.44535E-03  0.58719E-03  0.67504E-03  0.66887E-03  0.58444E-03  0.52354E-03
  0.65146E-03  0.95521E-03  0.13237E-02  0.16905E-02  0.20162E-02  0.22749E-02
  0.24537E-02  0.25513E-02  0.25735E-02  0.25319E-02  0.24460E-02  0.23450E-02
  0.22605E-02  0.22148E-02  0.22183E-02  0.22821E-02  0.24285E-02  0.26730E-02
  0.29897E-02  0.33060E-02  0.35446E-02  0.36746E-02  0.37108E-02  0.36683E-02
  0.35335E-02  0.32919E-02  0.29743E-02  0.26576E-02  0.24154E-02  0.22746E-02
  0.22206E-02  0.22302E-02  0.22902E-02  0.23872E-02  0.24963E-02  0.25852E-02
  0.26253E-02  0.25977E-02  0.24918E-02  0.23026E-02  0.20325E-02  0.16955E-02
  0.13165E-02  0.93038E-03  0.59308E-03  0.42205E-03  0.48028E-03  0.57869E-03
  0.67175E-03  0.58383E-03  0.56691E-03  0.59475E-03  0.68069E-03  0.84748E-03
  0.10887E-02  0.13768E-02  0.16808E-02  0.19683E-02  0.22070E-02  0.23724E-02
  0.24550E-02  0.24589E-02  0.23963E-02  0.22842E-02  0.21454E-02  0.20105E-02
  0.19147E-02  0.18878E-02  0.19444E-02  0.20853E-02  0.23086E-02  0.26145E-02
  0.29897E-02  0.33895E-02  0.37437E-02  0.39838E-02  0.40667E-02  0.39786E-02
  0.37334E-02  0.33745E-02  0.29704E-02  0.25922E-02  0.22861E-02  0.20681E-02
  0.19398E-02  0.19019E-02  0.19497E-02  0.20636E-02  0.22104E-02  0.23540E-02
  0.24649E-02  0.25219E-02  0.25098E-02  0.24180E-02  0.22436E-02  0.19975E-02
  0.17051E-02  0.13982E-02  0.11064E-02  0.85696E-03  0.67545E-03  0.57248E-03
  0.11199E-02  0.10297E-02  0.10072E-02  0.10500E-02  0.11577E-02  0.13237E-02
  0.15330E-02  0.17659E-02  0.19976E-02  0.21974E-02  0.23345E-02  0.23896E-02
  0.23595E-02  0.22552E-02  0.20968E-02  0.19103E-02  0.17241E-02  0.15669E-02
  0.14671E-02  0.14534E-02  0.15486E-02  0.17584E-02  0.20677E-02  0.24507E-02
  0.28765E-02  0.33033E-02  0.36744E-02  0.39279E-02  0.40162E-02  0.39213E-02
  0.36608E-02  0.32823E-02  0.28480E-02  0.24160E-02  0.20309E-02  0.17283E-02
  0.15387E-02  0.14756E-02  0.15238E-02  0.16510E-02  0.18243E-02  0.20155E-02
  0.21984E-02  0.23478E-02  0.24410E-02  0.24603E-02  0.23963E-02  0.22530E-02
  0.20507E-02  0.18201E-02  0.15904E-02  0.13836E-02  0.12167E-02  0.11028E-02
  0.14339E-02  0.13922E-02  0.14011E-02  0.14609E-02  0.15719E-02  0.17258E-02
  0.19055E-02  0.20887E-02  0.22480E-02  0.23532E-02  0.23794E-02  0.23161E-02
  0.21696E-02  0.19589E-02  0.17147E-02  0.14756E-02  0.12760E-02  0.11350E-02
  0.10584E-02  0.10571E-02  0.11618E-02  0.14042E-02  0.17787E-02  0.22428E-02
  0.27424E-02  0.32227E-02  0.36265E-02  0.38969E-02  0.39896E-02  0.38877E-02
  0.36075E-02  0.31930E-02  0.27013E-02  0.21913E-02  0.17222E-02  0.13580E-02
  0.11523E-02  0.11065E-02  0.11672E-02  0.12869E-02  0.14488E-02  0.16485E-02
  0.18739E-02  0.20982E-02  0.22890E-02  0.24190E-02  0.24702E-02  0.24367E-02
  0.23288E-02  0.21709E-02  0.19921E-02  0.18171E-02  0.16655E-02  0.15515E-02
  0.15788E-02  0.15962E-02  0.16512E-02  0.17443E-02  0.18751E-02  0.20323E-02
  0.21939E-02  0.23325E-02  0.24191E-02  0.24265E-02  0.23389E-02  0.21584E-02
  0.19049E-02  0.16123E-02  0.13308E-02  0.11184E-02  0.10054E-02  0.96364E-03
  0.94182E-03  0.92338E-03  0.95967E-03  0.11523E-02  0.15410E-02  0.20676E-02
  0.26483E-02  0.32066E-02  0.36718E-02  0.39801E-02  0.40849E-02  0.39685E-02
  0.36476E-02  0.31686E-02  0.25953E-02  0.19997E-02  0.14651E-02  0.10937E-02
  0.96375E-03  0.10132E-02  0.11100E-02  0.11947E-02  0.12761E-02  0.13938E-02
  0.15785E-02  0.18194E-02  0.20745E-02  0.22995E-02  0.24608E-02  0.25374E-02
  0.25254E-02  0.24395E-02  0.23048E-02  0.21483E-02  0.19944E-02  0.18623E-02
  0.15651E-02  0.16464E-02  0.17592E-02  0.19017E-02  0.20691E-02  0.22431E-02
  0.23949E-02  0.24933E-02  0.25095E-02  0.24217E-02  0.22242E-02  0.19359E-02
  0.15995E-02  0.12813E-02  0.10730E-02  0.10391E-02  0.11209E-02  0.11995E-02
  0.12022E-02  0.11195E-02  0.10201E-02  0.10839E-02  0.14485E-02  0.20332E-02
  0.27032E-02  0.33521E-02  0.38910E-02  0.42458E-02  0.43659E-02  0.42331E-02
  0.38648E-02  0.33110E-02  0.26457E-02  0.19599E-02  0.13688E-02  0.10360E-02
  0.10529E-02  0.12329E-02  0.13836E-02  0.14435E-02  0.14244E-02  0.13866E-02
  0.14184E-02  0.15747E-02  0.18306E-02  0.21194E-02  0.23772E-02  0.25577E-02
  0.26381E-02  0.26209E-02  0.25258E-02  0.23788E-02  0.22087E-02  0.20413E-02
  0.14070E-02  0.15536E-02  0.17322E-02  0.19371E-02  0.21551E-02  0.23577E-02
  0.25079E-02  0.25725E-02  0.25255E-02  0.23516E-02  0.20565E-02  0.16803E-02
  0.13044E-02  0.10590E-02  0.10645E-02  0.12585E-02  0.14729E-02  0.15951E-02
  0.15738E-02  0.14093E-02  0.11862E-02  0.11497E-02  0.15343E-02  0.22185E-02
  0.30055E-02  0.37612E-02  0.43812E-02  0.47846E-02  0.49209E-02  0.47732E-02
  0.43578E-02  0.37249E-02  0.29561E-02  0.21586E-02  0.14780E-02  0.11412E-02
  0.12580E-02  0.15433E-02  0.17573E-02  0.18261E-02  0.17548E-02  0.15966E-02
  0.14478E-02  0.14289E-02  0.16003E-02  0.19048E-02  0.22361E-02  0.25076E-02
  0.26715E-02  0.27164E-02  0.26543E-02  0.25084E-02  0.23099E-02  0.20930E-02
  0.11244E-02  0.13373E-02  0.15879E-02  0.18651E-02  0.21446E-02  0.23851E-02
  0.25413E-02  0.25793E-02  0.24789E-02  0.22339E-02  0.18632E-02  0.14324E-02
  0.10817E-02  0.10167E-02  0.12506E-02  0.15705E-02  0.18241E-02  0.19315E-02
  0.18532E-02  0.16004E-02  0.12945E-02  0.12777E-02  0.18037E-02  0.26502E-02
  0.35863E-02  0.44670E-02  0.51789E-02  0.56370E-02  0.57922E-02  0.56292E-02
  0.51630E-02  0.44431E-02  0.35560E-02  0.26194E-02  0.17912E-02  0.13271E-02
  0.14206E-02  0.17693E-02  0.20517E-02  0.21585E-02  0.20839E-02  0.18719E-02
  0.16028E-02  0.14030E-02  0.14224E-02  0.16862E-02  0.20591E-02  0.24019E-02
  0.26361E-02  0.27345E-02  0.26989E-02  0.25468E-02  0.23100E-02  0.20321E-02
  0.74500E-03  0.10261E-02  0.13551E-02  0.17120E-02  0.20601E-02  0.23449E-02
  0.25134E-02  0.25323E-02  0.23898E-02  0.20923E-02  0.16744E-02  0.12301E-02
  0.96784E-03  0.10994E-02  0.14621E-02  0.18189E-02  0.20527E-02  0.21016E-02
  0.19397E-02  0.16063E-02  0.13101E-02  0.15124E-02  0.22968E-02  0.33434E-02
  0.44442E-02  0.54601E-02  0.62739E-02  0.67958E-02  0.69743E-02  0.67932E-02
  0.62689E-02  0.54539E-02  0.44400E-02  0.33497E-02  0.23347E-02  0.16267E-02
  0.15132E-02  0.18350E-02  0.21731E-02  0.23407E-02  0.23026E-02  0.20884E-02
  0.17639E-02  0.14411E-02  0.13048E-02  0.14880E-02  0.18700E-02  0.22608E-02
  0.25502E-02  0.26931E-02  0.26780E-02  0.25138E-02  0.22321E-02  0.18852E-02
  0.29872E-03  0.64251E-03  0.10525E-02  0.14928E-02  0.19144E-02  0.22510E-02
  0.24425E-02  0.24560E-02  0.22877E-02  0.19580E-02  0.15200E-02  0.10949E-02
  0.93512E-03  0.11825E-02  0.15820E-02  0.19195E-02  0.20925E-02  0.20514E-02
  0.17981E-02  0.14437E-02  0.13770E-02  0.19999E-02  0.30777E-02  0.43283E-02
  0.55902E-02  0.67353E-02  0.76474E-02  0.82334E-02  0.84360E-02  0.82368E-02
  0.76548E-02  0.67488E-02  0.56144E-02  0.43725E-02  0.31621E-02  0.21671E-02
  0.16667E-02  0.17708E-02  0.20974E-02  0.23245E-02  0.23489E-02  0.21692E-02
  0.18375E-02  0.14574E-02  0.12172E-02  0.13213E-02  0.16943E-02  0.21135E-02
  0.24422E-02  0.26160E-02  0.26093E-02  0.24231E-02  0.20893E-02  0.16679E-02
  0.23136E-03  0.19733E-03  0.67858E-03  0.12006E-02  0.17008E-02  0.21016E-02
  0.23369E-02  0.23715E-02  0.22041E-02  0.18660E-02  0.14281E-02  0.10312E-02
  0.92638E-03  0.11888E-02  0.15549E-02  0.18280E-02  0.19113E-02  0.17743E-02
  0.14807E-02  0.13215E-02  0.17921E-02  0.28451E-02  0.41807E-02  0.56127E-02
  0.70061E-02  0.82436E-02  0.92192E-02  0.98453E-02  0.10064E-01  0.98539E-02
  0.92377E-02  0.82747E-02  0.70554E-02  0.56894E-02  0.43019E-02  0.30443E-02
  0.21232E-02  0.17687E-02  0.18962E-02  0.21176E-02  0.21982E-02  0.20741E-02
  0.17740E-02  0.13951E-02  0.11229E-02  0.11914E-02  0.15605E-02  0.19964E-02
  0.23446E-02  0.25247E-02  0.25012E-02  0.22730E-02  0.18748E-02  0.13737E-02
  0.77027E-03  0.33933E-03  0.24647E-03  0.83211E-03  0.14170E-02  0.18980E-02
  0.22022E-02  0.22909E-02  0.21602E-02  0.18442E-02  0.14242E-02  0.10444E-02
  0.91969E-03  0.11057E-02  0.13769E-02  0.15485E-02  0.15370E-02  0.13642E-02
  0.12614E-02  0.16797E-02  0.26815E-02  0.40352E-02  0.55614E-02  0.71125E-02
  0.85621E-02  0.98082E-02  0.10770E-01  0.11380E-01  0.11594E-01  0.11393E-01
  0.10797E-01  0.98530E-02  0.86305E-02  0.72134E-02  0.57083E-02  0.42511E-02
  0.30048E-02  0.21510E-02  0.18120E-02  0.18327E-02  0.18935E-02  0.18149E-02
  0.15722E-02  0.12452E-02  0.10166E-02  0.11185E-02  0.15038E-02  0.19441E-02
  0.22832E-02  0.24345E-02  0.23609E-02  0.20654E-02  0.15871E-02  0.99957E-03
  0.13125E-02  0.88392E-03  0.32238E-03  0.41620E-03  0.10911E-02  0.16708E-02
  0.20634E-02  0.22287E-02  0.21646E-02  0.19045E-02  0.15263E-02  0.11583E-02
  0.96191E-03  0.99989E-03  0.11275E-02  0.11923E-02  0.11658E-02  0.12200E-02
  0.16834E-02  0.26354E-02  0.39461E-02  0.54787E-02  0.70915E-02  0.86430E-02
  0.10017E-01  0.11136E-01  0.11961E-01  0.12467E-01  0.12643E-01  0.12482E-01
  0.11993E-01  0.11190E-01  0.10098E-01  0.87602E-02  0.72544E-02  0.57017E-02
  0.42497E-02  0.30453E-02  0.22104E-02  0.17849E-02  0.16269E-02  0.15075E-02
  0.13109E-02  0.10721E-02  0.96152E-03  0.11559E-02  0.15608E-02  0.19790E-02
  0.22729E-02  0.23628E-02  0.22150E-02  0.18323E-02  0.12560E-02  0.57797E-03
  0.17148E-02  0.13730E-02  0.82941E-03  0.15670E-03  0.74194E-03  0.14572E-02
  0.19643E-02  0.22158E-02  0.22277E-02  0.20455E-02  0.17370E-02  0.14006E-02
  0.11516E-02  0.10533E-02  0.10620E-02  0.11290E-02  0.13313E-02  0.18368E-02
  0.27276E-02  0.39642E-02  0.54470E-02  0.70417E-02  0.85999E-02  0.99846E-02
  0.11096E-01  0.11890E-01  0.12381E-01  0.12631E-01  0.12708E-01  0.12644E-01
  0.12412E-01  0.11946E-01  0.11184E-01  0.10111E-01  0.87714E-02  0.72657E-02
  0.57320E-02  0.43174E-02  0.31499E-02  0.23070E-02  0.17779E-02  0.14556E-02
  0.12232E-02  0.10671E-02  0.10945E-02  0.13617E-02  0.17498E-02  0.21075E-02
  0.23279E-02  0.23432E-02  0.21095E-02  0.16124E-02  0.90366E-03  0.23106E-03
  0.17071E-02  0.16774E-02  0.13879E-02  0.71971E-03  0.27919E-03  0.12083E-02
  0.19149E-02  0.22858E-02  0.23715E-02  0.22657E-02  0.20421E-02  0.17687E-02
  0.15322E-02  0.14123E-02  0.14471E-02  0.16696E-02  0.21436E-02  0.29343E-02
  0.40636E-02  0.54761E-02  0.70378E-02  0.85750E-02  0.99216E-02  0.10939E-01
  0.11524E-01  0.11650E-01  0.11430E-01  0.11113E-01  0.10968E-01  0.11114E-01
  0.11442E-01  0.11688E-01  0.11602E-01  0.11064E-01  0.10095E-01  0.87957E-02
  0.73065E-02  0.57901E-02  0.44127E-02  0.32956E-02  0.24761E-02  0.19168E-02
  0.15635E-02  0.14062E-02  0.14743E-02  0.17326E-02  0.20566E-02  0.23287E-02
  0.24713E-02  0.24104E-02  0.20534E-02  0.13528E-02  0.44321E-03  0.64866E-03
  0.94880E-03  0.16877E-02  0.21227E-02  0.17832E-02  0.69721E-03  0.70768E-03
  0.18163E-02  0.24271E-02  0.26125E-02  0.25667E-02  0.24186E-02  0.22245E-02
  0.20509E-02  0.19958E-02  0.21435E-02  0.25403E-02  0.32149E-02  0.41993E-02
  0.54971E-02  0.70186E-02  0.85740E-02  0.99411E-02  0.10919E-01  0.11317E-01
  0.10959E-01  0.98160E-02  0.82048E-02  0.67827E-02  0.62131E-02  0.67617E-02
  0.81743E-02  0.98060E-02  0.11000E-01  0.11422E-01  0.11083E-01  0.10154E-01
  0.88277E-02  0.73048E-02  0.58011E-02  0.44965E-02  0.34731E-02  0.27261E-02
  0.22331E-02  0.19979E-02  0.20168E-02  0.22099E-02  0.24481E-02  0.26395E-02
  0.27171E-02  0.25490E-02  0.19394E-02  0.82305E-03  0.65793E-03  0.17452E-02
  0.96844E-03  0.13810E-02  0.32196E-02  0.36395E-02  0.24436E-02  0.42711E-03
  0.14681E-02  0.25516E-02  0.29271E-02  0.29373E-02  0.28382E-02  0.27170E-02
  0.26258E-02  0.26662E-02  0.29404E-02  0.34928E-02  0.43314E-02  0.54707E-02
  0.68921E-02  0.84628E-02  0.99373E-02  0.11040E-01  0.11492E-01  0.10949E-01
  0.90596E-02  0.58467E-02  0.25923E-02  0.32585E-02  0.44093E-02  0.33886E-02
  0.26331E-02  0.57729E-02  0.90322E-02  0.11009E-01  0.11633E-01  0.11240E-01
  0.10176E-01  0.87279E-02  0.71668E-02  0.57309E-02  0.45501E-02  0.36479E-02
  0.30208E-02  0.26830E-02  0.26180E-02  0.27269E-02  0.28861E-02  0.30223E-02
  0.30359E-02  0.26625E-02  0.15519E-02  0.41738E-03  0.24869E-02  0.37148E-02
  0.36800E-02  0.87946E-03  0.47395E-02  0.63650E-02  0.51470E-02  0.22260E-02
  0.72992E-03  0.25434E-02  0.32449E-02  0.33344E-02  0.32608E-02  0.31926E-02
  0.31809E-02  0.33165E-02  0.37034E-02  0.43842E-02  0.53575E-02  0.66221E-02
  0.81309E-02  0.97056E-02  0.11051E-01  0.11827E-01  0.11617E-01  0.98123E-02
  0.58564E-02  0.25108E-02  0.90755E-02  0.15361E-01  0.17914E-01  0.15565E-01
  0.94049E-02  0.28064E-02  0.57631E-02  0.98097E-02  0.11721E-01  0.12008E-01
  0.11275E-01  0.99540E-02  0.83855E-02  0.68599E-02  0.55548E-02  0.45248E-02
  0.37824E-02  0.33467E-02  0.31944E-02  0.32231E-02  0.33245E-02  0.34289E-02
  0.33521E-02  0.26284E-02  0.73383E-03  0.23193E-02  0.53626E-02  0.66327E-02
  0.67612E-02  0.55412E-03  0.64497E-02  0.94881E-02  0.83310E-02  0.44795E-02
  0.43672E-03  0.23700E-02  0.34889E-02  0.36884E-02  0.36300E-02  0.35944E-02
  0.36454E-02  0.38577E-02  0.43293E-02  0.51037E-02  0.61779E-02  0.75382E-02
  0.91070E-02  0.10664E-01  0.11871E-01  0.12316E-01  0.11403E-01  0.82189E-02
  0.25713E-02  0.89948E-02  0.20442E-01  0.29983E-01  0.33809E-01  0.30275E-01
  0.20908E-01  0.94820E-02  0.26536E-02  0.81602E-02  0.11469E-01  0.12476E-01
  0.12082E-01  0.10900E-01  0.93483E-02  0.77625E-02  0.63635E-02  0.52373E-02
  0.44095E-02  0.38981E-02  0.36740E-02  0.36395E-02  0.37048E-02  0.37881E-02
  0.35885E-02  0.24173E-02  0.43527E-03  0.47205E-02  0.87555E-02  0.99864E-02
  0.92248E-02  0.72662E-03  0.78408E-02  0.12042E-01  0.10973E-01  0.64047E-02
  0.13588E-02  0.21428E-02  0.36257E-02  0.39301E-02  0.38838E-02  0.38654E-02
  0.39555E-02  0.42161E-02  0.47379E-02  0.55675E-02  0.67042E-02  0.81259E-02
  0.97321E-02  0.11272E-01  0.12374E-01  0.12565E-01  0.11094E-01  0.68151E-02
  0.30643E-02  0.15161E-01  0.29839E-01  0.41940E-01  0.46775E-01  0.42303E-01
  0.30418E-01  0.15760E-01  0.35652E-02  0.67291E-02  0.11133E-01  0.12709E-01
  0.12575E-01  0.11500E-01  0.99658E-02  0.83429E-02  0.68837E-02  0.56979E-02
  0.48195E-02  0.42627E-02  0.39931E-02  0.39190E-02  0.39650E-02  0.40317E-02
  0.37166E-02  0.21547E-02  0.14646E-02  0.67711E-02  0.11572E-01  0.12731E-01
  0.10169E-01  0.86137E-03  0.83804E-02  0.13033E-01  0.12006E-01  0.71672E-02
  0.17487E-02  0.20387E-02  0.36671E-02  0.40154E-02  0.39744E-02  0.39613E-02
  0.40646E-02  0.43415E-02  0.48796E-02  0.57271E-02  0.68849E-02  0.83280E-02
  0.99473E-02  0.11480E-01  0.12543E-01  0.12639E-01  0.10954E-01  0.62577E-02
  0.41263E-02  0.17589E-01  0.33496E-01  0.46579E-01  0.51801E-01  0.46969E-01
  0.34119E-01  0.18233E-01  0.46752E-02  0.61681E-02  0.10982E-01  0.12777E-01
  0.12741E-01  0.11706E-01  0.10178E-01  0.85427E-02  0.70625E-02  0.58566E-02
  0.49618E-02  0.43901E-02  0.41051E-02  0.40177E-02  0.40575E-02  0.41173E-02
  0.37540E-02  0.20358E-02  0.18864E-02  0.75829E-02  0.12673E-01  0.13798E-01
  0.92248E-02  0.72662E-03  0.78408E-02  0.12042E-01  0.10973E-01  0.64047E-02
  0.13588E-02  0.21428E-02  0.36257E-02  0.39301E-02  0.38838E-02  0.38654E-02
  0.39555E-02  0.42161E-02  0.47379E-02  0.55675E-02  0.67042E-02  0.81259E-02
  0.97321E-02  0.11272E-01  0.12374E-01  0.12565E-01  0.11094E-01  0.68151E-02
  0.30643E-02  0.15161E-01  0.29839E-01  0.41940E-01  0.46775E-01  0.42303E-01
  0.30418E-01  0.15760E-01  0.35652E-02  0.67291E-02  0.11133E-01  0.12709E-01
  0.12575E-01  0.11500E-01  0.99658E-02  0.83429E-02  0.68837E-02  0.56979E-02
  0.48195E-02  0.42627E-02  0.39931E-02  0.39190E-02  0.39650E-02  0.40317E-02
  0.37166E-02  0.21547E-02  0.14646E-02  0.67711E-02  0.11572E-01  0.12731E-01
  0.67612E-02  0.55412E-03  0.64497E-02  0.94881E-02  0.83310E-02  0.44795E-02
  0.43672E-03  0.23700E-02  0.34889E-02  0.36884E-02  0.36300E-02  0.35944E-02
  0.36454E-02  0.38577E-02  0.43293E-02  0.51037E-02  0.61779E-02  0.75382E-02
  0.91070E-02  0.10664E-01  0.11871E-01  0.12316E-01  0.11403E-01  0.82189E-02
  0.25713E-02  0.89948E-02  0.20442E-01  0.29983E-01  0.33809E-01  0.30275E-01
  0.20908E-01  0.94820E-02  0.26536E-02  0.81602E-02  0.11469E-01  0.12476E-01
  0.12082E-01  0.10900E-01  0.93483E-02  0.77625E-02  0.63635E-02  0.52373E-02
  0.44095E-02  0.38981E-02  0.36740E-02  0.36395E-02  0.37048E-02  0.37881E-02
  0.35885E-02  0.24173E-02  0.43527E-03  0.47205E-02  0.87555E-02  0.99864E-02
  0.36800E-02  0.87946E-03  0.47395E-02  0.63650E-02  0.51470E-02  0.22260E-02
  0.72992E-03  0.25434E-02  0.32449E-02  0.33344E-02  0.32608E-02  0.31926E-02
  0.31809E-02  0.33165E-02  0.37034E-02  0.43842E-02  0.53575E-02  0.66221E-02
  0.81309E-02  0.97056E-02  0.11051E-01  0.11827E-01  0.11617E-01  0.98123E-02
  0.58564E-02  0.25108E-02  0.90755E-02  0.15361E-01  0.17914E-01  0.15565E-01
  0.94049E-02  0.28064E-02  0.57631E-02  0.98097E-02  0.11721E-01  0.12008E-01
  0.11275E-01  0.99540E-02  0.83855E-02  0.68599E-02  0.55548E-02  0.45248E-02
  0.37824E-02  0.33467E-02  0.31944E-02  0.32231E-02  0.33245E-02  0.34289E-02
  0.33521E-02  0.26284E-02  0.73383E-03  0.23193E-02  0.53626E-02  0.66327E-02
  0.96845E-03  0.13810E-02  0.32196E-02  0.36395E-02  0.24436E-02  0.42711E-03
  0.14681E-02  0.25516E-02  0.29271E-02  0.29373E-02  0.28382E-02  0.27170E-02
  0.26258E-02  0.26662E-02  0.29404E-02  0.34928E-02  0.43314E-02  0.54707E-02
  0.68921E-02  0.84628E-02  0.99373E-02  0.11040E-01  0.11492E-01  0.10949E-01
  0.90596E-02  0.58467E-02  0.25923E-02  0.32585E-02  0.44093E-02  0.33886E-02
  0.26331E-02  0.57729E-02  0.90322E-02  0.11009E-01  0.11633E-01  0.11240E-01
  0.10176E-01  0.87279E-02  0.71668E-02  0.57309E-02  0.45501E-02  0.36479E-02
  0.30208E-02  0.26830E-02  0.26180E-02  0.27269E-02  0.28861E-02  0.30223E-02
  0.30359E-02  0.26625E-02  0.15519E-02  0.41738E-03  0.24869E-02  0.37148E-02
  0.94880E-03  0.16877E-02  0.21227E-02  0.17832E-02  0.69721E-03  0.70768E-03
  0.18163E-02  0.24271E-02  0.26125E-02  0.25667E-02  0.24186E-02  0.22245E-02
  0.20509E-02  0.19958E-02  0.21435E-02  0.25403E-02  0.32149E-02  0.41993E-02
  0.54971E-02  0.70186E-02  0.85740E-02  0.99411E-02  0.10919E-01  0.11317E-01
  0.10959E-01  0.98160E-02  0.82048E-02  0.67827E-02  0.62131E-02  0.67617E-02
  0.81743E-02  0.98060E-02  0.11000E-01  0.11422E-01  0.11083E-01  0.10154E-01
  0.88277E-02  0.73048E-02  0.58011E-02  0.44965E-02  0.34731E-02  0.27261E-02
  0.22331E-02  0.19979E-02  0.20168E-02  0.22099E-02  0.24481E-02  0.26395E-02
  0.27171E-02  0.25490E-02  0.19394E-02  0.82304E-03  0.65793E-03  0.17452E-02
  0.17071E-02  0.16774E-02  0.13879E-02  0.71971E-03  0.27919E-03  0.12083E-02
  0.19149E-02  0.22858E-02  0.23715E-02  0.22657E-02  0.20421E-02  0.17687E-02
  0.15322E-02  0.14123E-02  0.14471E-02  0.16696E-02  0.21436E-02  0.29343E-02
  0.40636E-02  0.54761E-02  0.70378E-02  0.85750E-02  0.99216E-02  0.10939E-01
  0.11524E-01  0.11650E-01  0.11430E-01  0.11113E-01  0.10968E-01  0.11114E-01
  0.11442E-01  0.11688E-01  0.11602E-01  0.11064E-01  0.10095E-01  0.87957E-02
  0.73065E-02  0.57901E-02  0.44127E-02  0.32956E-02  0.24761E-02  0.19168E-02
  0.15635E-02  0.14062E-02  0.14743E-02  0.17326E-02  0.20566E-02  0.23287E-02
  0.24713E-02  0.24104E-02  0.20534E-02  0.13528E-02  0.44321E-03  0.64866E-03
  0.17148E-02  0.13730E-02  0.82941E-03  0.15670E-03  0.74194E-03  0.14572E-02
  0.19643E-02  0.22158E-02  0.22277E-02  0.20455E-02  0.17370E-02  0.14006E-02
  0.11516E-02  0.10533E-02  0.10620E-02  0.11290E-02  0.13313E-02  0.18368E-02
  0.27276E-02  0.39642E-02  0.54470E-02  0.70417E-02  0.85999E-02  0.99846E-02
  0.11096E-01  0.11890E-01  0.12381E-01  0.12631E-01  0.12708E-01  0.12644E-01
  0.12412E-01  0.11946E-01  0.11184E-01  0.10111E-01  0.87714E-02  0.72657E-02
  0.57320E-02  0.43174E-02  0.31499E-02  0.23070E-02  0.17779E-02  0.14556E-02
  0.12232E-02  0.10671E-02  0.10945E-02  0.13617E-02  0.17498E-02  0.21075E-02
  0.23279E-02  0.23432E-02  0.21095E-02  0.16124E-02  0.90366E-03  0.23106E-03
  0.13125E-02  0.88392E-03  0.32238E-03  0.41620E-03  0.10911E-02  0.16708E-02
  0.20634E-02  0.22287E-02  0.21646E-02  0.19045E-02  0.15263E-02  0.11583E-02
  0.96191E-03  0.99989E-03  0.11275E-02  0.11923E-02  0.11658E-02  0.12200E-02
  0.16834E-02  0.26354E-02  0.39461E-02  0.54787E-02  0.70915E-02  0.86430E-02
  0.10017E-01  0.11136E-01  0.11961E-01  0.12467E-01  0.12643E-01  0.12482E-01
  0.11993E-01  0.11190E-01  0.10098E-01  0.87602E-02  0.72544E-02  0.57017E-02
  0.42497E-02  0.30453E-02  0.22104E-02  0.17849E-02  0.16269E-02  0.15075E-02
  0.13109E-02  0.10721E-02  0.96152E-03  0.11559E-02  0.15608E-02  0.19790E-02
  0.22729E-02  0.23628E-02  0.22150E-02  0.18323E-02  0.12560E-02  0.57797E-03
  0.77027E-03  0.33933E-03  0.24647E-03  0.83211E-03  0.14170E-02  0.18980E-02
  0.22022E-02  0.22909E-02  0.21602E-02  0.18442E-02  0.14242E-02  0.10444E-02
  0.91969E-03  0.11057E-02  0.13769E-02  0.15485E-02  0.15370E-02  0.13642E-02
  0.12614E-02  0.16797E-02  0.26815E-02  0.40352E-02  0.55614E-02  0.71125E-02
  0.85621E-02  0.98082E-02  0.10770E-01  0.11380E-01  0.11594E-01  0.11393E-01
  0.10797E-01  0.98530E-02  0.86305E-02  0.72134E-02  0.57083E-02  0.42511E-02
  0.30048E-02  0.21510E-02  0.18120E-02  0.18327E-02  0.18935E-02  0.18149E-02
  0.15722E-02  0.12452E-02  0.10166E-02  0.11185E-02  0.15038E-02  0.19441E-02
  0.22832E-02  0.24345E-02  0.23609E-02  0.20654E-02  0.15871E-02  0.99957E-03
  0.23136E-03  0.19733E-03  0.67858E-03  0.12006E-02  0.17008E-02  0.21016E-02
  0.23369E-02  0.23715E-02  0.22041E-02  0.18660E-02  0.14281E-02  0.10312E-02
  0.92638E-03  0.11888E-02  0.15549E-02  0.18280E-02  0.19113E-02  0.17743E-02
  0.14807E-02  0.13215E-02  0.17921E-02  0.28451E-02  0.41807E-02  0.56127E-02
  0.70061E-02  0.82436E-02  0.92192E-02  0.98453E-02  0.10064E-01  0.98539E-02
  0.92377E-02  0.82747E-02  0.70554E-02  0.56894E-02  0.43019E-02  0.30443E-02
  0.21232E-02  0.17687E-02  0.18962E-02  0.21176E-02  0.21982E-02  0.20741E-02
  0.17740E-02  0.13951E-02  0.11229E-02  0.11914E-02  0.15605E-02  0.19964E-02
  0.23446E-02  0.25247E-02  0.25012E-02  0.22730E-02  0.18748E-02  0.13737E-02
  0.29872E-03  0.64251E-03  0.10525E-02  0.14928E-02  0.19144E-02  0.22510E-02
  0.24425E-02  0.24560E-02  0.22877E-02  0.19580E-02  0.15200E-02  0.10949E-02
  0.93512E-03  0.11825E-02  0.15820E-02  0.19195E-02  0.20925E-02  0.20514E-02
  0.17981E-02  0.14437E-02  0.13770E-02  0.19999E-02  0.30777E-02  0.43283E-02
  0.55902E-02  0.67353E-02  0.76474E-02  0.82334E-02  0.84360E-02  0.82368E-02
  0.76548E-02  0.67488E-02  0.56144E-02  0.43725E-02  0.31621E-02  0.21671E-02
  0.16667E-02  0.17708E-02  0.20974E-02  0.23245E-02  0.23489E-02  0.21692E-02
  0.18375E-02  0.14574E-02  0.12172E-02  0.13213E-02  0.16943E-02  0.21135E-02
  0.24422E-02  0.26160E-02  0.26093E-02  0.24231E-02  0.20893E-02  0.16679E-02
  0.74500E-03  0.10261E-02  0.13551E-02  0.17120E-02  0.20601E-02  0.23449E-02
  0.25134E-02  0.25323E-02  0.23898E-02  0.20923E-02  0.16744E-02  0.12301E-02
  0.96784E-03  0.10994E-02  0.14621E-02  0.18189E-02  0.20527E-02  0.21016E-02
  0.19397E-02  0.16063E-02  0.13101E-02  0.15124E-02  0.22968E-02  0.33434E-02
  0.44442E-02  0.54601E-02  0.62739E-02  0.67958E-02  0.69743E-02  0.67932E-02
  0.62689E-02  0.54539E-02  0.44400E-02  0.33497E-02  0.23347E-02  0.16267E-02
  0.15132E-02  0.18350E-02  0.21731E-02  0.23407E-02  0.23026E-02  0.20884E-02
  0.17639E-02  0.14411E-02  0.13048E-02  0.14880E-02  0.18700E-02  0.22608E-02
  0.25502E-02  0.26931E-02  0.26780E-02  0.25138E-02  0.22321E-02  0.18852E-02
  0.11244E-02  0.13373E-02  0.15879E-02  0.18651E-02  0.21446E-02  0.23851E-02