
     Program PWSCF v.7.0 starts on 18Jul2023 at 18:46:35 

     This program is part of the open-source Quantum ESPRESSO suite
     for quantum simulation of materials; please cite
         "P. Giannozzi et al., J. Phys.:Condens. Matter 21 395502 (2009);
         "P. Giannozzi et al., J. Phys.:Condens. Matter 29 465901 (2017);
         "P. Giannozzi et al., J. Chem. Phys. 152 154105 (2020);
          URL http://www.quantum-espresso.org", 
     in publications or presentations arising from this work. More details at
     http://www.quantum-espresso.org/quote

     Parallel version (MPI), running on    22 processors

     MPI processes distributed on     1 nodes
     R & G space division:  proc/nbgrp/npool/nimage =      22
     147492 MiB available memory on the printing compute node when the environment starts
 
     Waiting for input...
     Reading input from standard input

     Current dimensions of program PWSCF are:
     Max number of different atomic species (ntypx) = 10
     Max number of k-points (npk) =  40000
     Max angular momentum in pseudopotentials (lmaxx) =  4
     file Ni.rel-pbe-n-rrkjus_psl.0.1.UPF: wavefunction(s)  3D renormalized

     Fixed quantization axis for GGA:     1.000000    0.000000    0.000000

     Subspace diagonalization in iterative solution of the eigenvalue problem:
     a serial algorithm will be used

 
     Parallelization info
     --------------------
     sticks:   dense  smooth     PW     G-vecs:    dense   smooth      PW
     Min          63      20      6                 2543      474      82
     Max          64      22      7                 2548      477      87
     Sum        1389     457    145                55993    10451    1843
 
     Using Slab Decomposition
 


     bravais-lattice index     =            6
     lattice parameter (alat)  =       4.7368  a.u.
     unit-cell volume          =     151.8494 (a.u.)^3
     number of atoms/cell      =            2
     number of atomic types    =            2
     number of electrons       =        26.00
     number of Kohn-Sham states=           98
     kinetic-energy cutoff     =      64.0000  Ry
     charge density cutoff     =     782.0000  Ry
     Exchange-correlation= PBE
                           (   1   4   3   4   0   0   0)
     Noncollinear calculation with spin-orbit


     celldm(1)=   4.736808  celldm(2)=   0.000000  celldm(3)=   1.428748
     celldm(4)=   0.000000  celldm(5)=   0.000000  celldm(6)=   0.000000

     crystal axes: (cart. coord. in units of alat)
               a(1) = (   1.000000   0.000000   0.000000 )  
               a(2) = (   0.000000   1.000000   0.000000 )  
               a(3) = (   0.000000   0.000000   1.428748 )  

     reciprocal axes: (cart. coord. in units 2 pi/alat)
               b(1) = (  1.000000  0.000000  0.000000 )  
               b(2) = (  0.000000  1.000000  0.000000 )  
               b(3) = (  0.000000  0.000000  0.699913 )  


     PseudoPot. # 1 for Fe read from file:
     /home2/koretsune/PWSCF/pseudo_psl031/Fe.rel-pbe-spn-rrkjus_psl.0.2.1.UPF
     MD5 check sum: e4688d448a4fb973b820eb5309e921a0
     Pseudo is Ultrasoft + core correction, Zval = 16.0
     Generated using "atomic" code by A. Dal Corso  v.5.0.99 svn rev. 10869
     Using radial grid of 1191 points, 10 beta functions with: 
                l(1) =   0
                l(2) =   0
                l(3) =   1
                l(4) =   1
                l(5) =   1
                l(6) =   1
                l(7) =   2
                l(8) =   2
                l(9) =   2
               l(10) =   2
     Q(r) pseudized with 0 coefficients 


     PseudoPot. # 2 for Ni read from file:
     /home2/koretsune/PWSCF/pseudo_psl031/Ni.rel-pbe-n-rrkjus_psl.0.1.UPF
     MD5 check sum: 6acd078e557c765e7fbba3d1e9889675
     Pseudo is Ultrasoft + core correction, Zval = 10.0
     Generated using "atomic" code by A. Dal Corso  v.5.0.99 svn rev. 10869
     Using radial grid of 1195 points, 10 beta functions with: 
                l(1) =   0
                l(2) =   0
                l(3) =   1
                l(4) =   1
                l(5) =   1
                l(6) =   1
                l(7) =   2
                l(8) =   2
                l(9) =   2
               l(10) =   2
     Q(r) pseudized with 0 coefficients 


     atomic species   valence    mass     pseudopotential
        Fe            16.00    55.84500     Fe( 1.00)
        Ni            10.00    58.69340     Ni( 1.00)

      8 Sym. Ops., with inversion, found


                                    s                        frac. trans.

      isym =  1     identity                                     

 Time Reversal            0
 cryst.   s( 1) = (     1          0          0      )
                  (     0          1          0      )
                  (     0          0          1      )

 cart.    s( 1) = (  1.0000000  0.0000000  0.0000000 )
                  (  0.0000000  1.0000000  0.0000000 )
                  (  0.0000000  0.0000000  1.0000000 )


      isym =  2     180 deg rotation - cart. axis [0,0,1]        

 Time Reversal            1
 cryst.   s( 2) = (    -1          0          0      )
                  (     0         -1          0      )
                  (     0          0          1      )

 cart.    s( 2) = ( -1.0000000  0.0000000  0.0000000 )
                  (  0.0000000 -1.0000000  0.0000000 )
                  (  0.0000000  0.0000000  1.0000000 )


      isym =  3     180 deg rotation - cart. axis [0,1,0]        

 Time Reversal            1
 cryst.   s( 3) = (    -1          0          0      )
                  (     0          1          0      )
                  (     0          0         -1      )

 cart.    s( 3) = ( -1.0000000  0.0000000  0.0000000 )
                  (  0.0000000  1.0000000  0.0000000 )
                  (  0.0000000  0.0000000 -1.0000000 )


      isym =  4     180 deg rotation - cart. axis [1,0,0]        

 Time Reversal            0
 cryst.   s( 4) = (     1          0          0      )
                  (     0         -1          0      )
                  (     0          0         -1      )

 cart.    s( 4) = (  1.0000000  0.0000000  0.0000000 )
                  (  0.0000000 -1.0000000  0.0000000 )
                  (  0.0000000  0.0000000 -1.0000000 )


      isym =  5     inversion                                    

 Time Reversal            0
 cryst.   s( 5) = (    -1          0          0      )
                  (     0         -1          0      )
                  (     0          0         -1      )

 cart.    s( 5) = ( -1.0000000  0.0000000  0.0000000 )
                  (  0.0000000 -1.0000000  0.0000000 )
                  (  0.0000000  0.0000000 -1.0000000 )


      isym =  6     inv. 180 deg rotation - cart. axis [0,0,1]   

 Time Reversal            1
 cryst.   s( 6) = (     1          0          0      )
                  (     0          1          0      )
                  (     0          0         -1      )

 cart.    s( 6) = (  1.0000000  0.0000000  0.0000000 )
                  (  0.0000000  1.0000000  0.0000000 )
                  (  0.0000000  0.0000000 -1.0000000 )


      isym =  7     inv. 180 deg rotation - cart. axis [0,1,0]   

 Time Reversal            1
 cryst.   s( 7) = (     1          0          0      )
                  (     0         -1          0      )
                  (     0          0          1      )

 cart.    s( 7) = (  1.0000000  0.0000000  0.0000000 )
                  (  0.0000000 -1.0000000  0.0000000 )
                  (  0.0000000  0.0000000  1.0000000 )


      isym =  8     inv. 180 deg rotation - cart. axis [1,0,0]   

 Time Reversal            0
 cryst.   s( 8) = (    -1          0          0      )
                  (     0          1          0      )
                  (     0          0          1      )

 cart.    s( 8) = ( -1.0000000  0.0000000  0.0000000 )
                  (  0.0000000  1.0000000  0.0000000 )
                  (  0.0000000  0.0000000  1.0000000 )


     the magnetic double point group is D_2h (mmm)  [C_2h (2/m) ]
     using the double point group C_2h (2/m) 
     there are  8 classes and  4 irreducible representations
     the character table:

       E     -E    C2    -C2   i     -i    s_h   -s_h 
                                                      
G_3+   1.00 -1.00  0.00  0.00  1.00 -1.00  0.00  0.00
G_4+   1.00 -1.00  0.00  0.00  1.00 -1.00  0.00  0.00
G_3-   1.00 -1.00  0.00  0.00 -1.00  1.00  0.00  0.00
G_4-   1.00 -1.00  0.00  0.00 -1.00  1.00  0.00  0.00

     imaginary part

       E     -E    C2    -C2   i     -i    s_h   -s_h 
                                                      
G_3+   0.00  0.00  1.00 -1.00  0.00  0.00  1.00 -1.00
G_4+   0.00  0.00 -1.00  1.00  0.00  0.00 -1.00  1.00
G_3-   0.00  0.00  1.00 -1.00  0.00  0.00 -1.00  1.00
G_4-   0.00  0.00 -1.00  1.00  0.00  0.00  1.00 -1.00

     the symmetry operations in each class and the name of the first element:

     E             1
          identity                                               
     -E           -1
          identity E                                             
     C2            2
          180 deg rotation - cart. axis [1,0,0]                  
     -C2          -2
          180 deg rotation - cart. axis [1,0,0] E                
     i             3
          inversion                                              
     -i           -3
          inversion E                                            
     s_h           4
          inv. 180 deg rotation - cart. axis [1,0,0]             
     -s_h         -4
          inv. 180 deg rotation - cart. axis [1,0,0] E           

   Cartesian axes

     site n.     atom                  positions (alat units)
         1           Fe  tau(   1) = (   0.0000000   0.0000000   0.0000000  )
         2           Ni  tau(   2) = (   0.5000000   0.5000000   0.7143741  )

   Crystallographic axes

     site n.     atom                  positions (cryst. coord.)
         1           Fe  tau(   1) = (  0.0000000  0.0000000  0.0000000  )
         2           Ni  tau(   2) = (  0.5000000  0.5000000  0.5000000  )

     number of k points=   100  Methfessel-Paxton smearing, width (Ry)=  0.0100
                       cart. coord. in units 2pi/alat
        k(    1) = (   0.0000000   0.0000000   0.0000000), wk =   0.0017637
        k(    2) = (   0.0000000   0.0000000   0.0999876), wk =   0.0035273
        k(    3) = (   0.0000000   0.0000000   0.1999753), wk =   0.0035273
        k(    4) = (   0.0000000   0.0000000   0.2999629), wk =   0.0035273
        k(    5) = (   0.0000000   0.1111111   0.0000000), wk =   0.0035273
        k(    6) = (   0.0000000   0.1111111   0.0999876), wk =   0.0070547
        k(    7) = (   0.0000000   0.1111111   0.1999753), wk =   0.0070547
        k(    8) = (   0.0000000   0.1111111   0.2999629), wk =   0.0070547
        k(    9) = (   0.0000000   0.2222222   0.0000000), wk =   0.0035273
        k(   10) = (   0.0000000   0.2222222   0.0999876), wk =   0.0070547
        k(   11) = (   0.0000000   0.2222222   0.1999753), wk =   0.0070547
        k(   12) = (   0.0000000   0.2222222   0.2999629), wk =   0.0070547
        k(   13) = (   0.0000000   0.3333333   0.0000000), wk =   0.0035273
        k(   14) = (   0.0000000   0.3333333   0.0999876), wk =   0.0070547
        k(   15) = (   0.0000000   0.3333333   0.1999753), wk =   0.0070547
        k(   16) = (   0.0000000   0.3333333   0.2999629), wk =   0.0070547
        k(   17) = (   0.0000000   0.4444444   0.0000000), wk =   0.0035273
        k(   18) = (   0.0000000   0.4444444   0.0999876), wk =   0.0070547
        k(   19) = (   0.0000000   0.4444444   0.1999753), wk =   0.0070547
        k(   20) = (   0.0000000   0.4444444   0.2999629), wk =   0.0070547
        k(   21) = (   0.1111111   0.1111111   0.0000000), wk =   0.0070547
        k(   22) = (   0.1111111   0.1111111   0.0999876), wk =   0.0141093
        k(   23) = (   0.1111111   0.1111111   0.1999753), wk =   0.0141093
        k(   24) = (   0.1111111   0.1111111   0.2999629), wk =   0.0141093
        k(   25) = (   0.1111111   0.2222222   0.0000000), wk =   0.0070547
        k(   26) = (   0.1111111   0.2222222   0.0999876), wk =   0.0141093
        k(   27) = (   0.1111111   0.2222222   0.1999753), wk =   0.0141093
        k(   28) = (   0.1111111   0.2222222   0.2999629), wk =   0.0141093
        k(   29) = (   0.1111111   0.3333333   0.0000000), wk =   0.0070547
        k(   30) = (   0.1111111   0.3333333   0.0999876), wk =   0.0141093
        k(   31) = (   0.1111111   0.3333333   0.1999753), wk =   0.0141093
        k(   32) = (   0.1111111   0.3333333   0.2999629), wk =   0.0141093
        k(   33) = (   0.1111111   0.4444444   0.0000000), wk =   0.0070547
        k(   34) = (   0.1111111   0.4444444   0.0999876), wk =   0.0141093
        k(   35) = (   0.1111111   0.4444444   0.1999753), wk =   0.0141093
        k(   36) = (   0.1111111   0.4444444   0.2999629), wk =   0.0141093
        k(   37) = (   0.2222222   0.2222222   0.0000000), wk =   0.0070547
        k(   38) = (   0.2222222   0.2222222   0.0999876), wk =   0.0141093
        k(   39) = (   0.2222222   0.2222222   0.1999753), wk =   0.0141093
        k(   40) = (   0.2222222   0.2222222   0.2999629), wk =   0.0141093
        k(   41) = (   0.2222222   0.3333333   0.0000000), wk =   0.0070547
        k(   42) = (   0.2222222   0.3333333   0.0999876), wk =   0.0141093
        k(   43) = (   0.2222222   0.3333333   0.1999753), wk =   0.0141093
        k(   44) = (   0.2222222   0.3333333   0.2999629), wk =   0.0141093
        k(   45) = (   0.2222222   0.4444444   0.0000000), wk =   0.0070547
        k(   46) = (   0.2222222   0.4444444   0.0999876), wk =   0.0141093
        k(   47) = (   0.2222222   0.4444444   0.1999753), wk =   0.0141093
        k(   48) = (   0.2222222   0.4444444   0.2999629), wk =   0.0141093
        k(   49) = (   0.3333333   0.3333333   0.0000000), wk =   0.0070547
        k(   50) = (   0.3333333   0.3333333   0.0999876), wk =   0.0141093
        k(   51) = (   0.3333333   0.3333333   0.1999753), wk =   0.0141093
        k(   52) = (   0.3333333   0.3333333   0.2999629), wk =   0.0141093
        k(   53) = (   0.3333333   0.4444444   0.0000000), wk =   0.0070547
        k(   54) = (   0.3333333   0.4444444   0.0999876), wk =   0.0141093
        k(   55) = (   0.3333333   0.4444444   0.1999753), wk =   0.0141093
        k(   56) = (   0.3333333   0.4444444   0.2999629), wk =   0.0141093
        k(   57) = (   0.4444444   0.4444444   0.0000000), wk =   0.0070547
        k(   58) = (   0.4444444   0.4444444   0.0999876), wk =   0.0141093
        k(   59) = (   0.4444444   0.4444444   0.1999753), wk =   0.0141093
        k(   60) = (   0.4444444   0.4444444   0.2999629), wk =   0.0141093
        k(   61) = (   0.1111111   0.0000000   0.0000000), wk =   0.0035273
        k(   62) = (   0.1111111   0.0000000  -0.0999876), wk =   0.0070547
        k(   63) = (   0.1111111   0.0000000  -0.1999753), wk =   0.0070547
        k(   64) = (   0.1111111   0.0000000  -0.2999629), wk =   0.0070547
        k(   65) = (   0.2222222   0.0000000   0.0000000), wk =   0.0035273
        k(   66) = (   0.2222222   0.0000000  -0.0999876), wk =   0.0070547
        k(   67) = (   0.2222222   0.0000000  -0.1999753), wk =   0.0070547
        k(   68) = (   0.2222222   0.0000000  -0.2999629), wk =   0.0070547
        k(   69) = (   0.3333333   0.0000000   0.0000000), wk =   0.0035273
        k(   70) = (   0.3333333   0.0000000  -0.0999876), wk =   0.0070547
        k(   71) = (   0.3333333   0.0000000  -0.1999753), wk =   0.0070547
        k(   72) = (   0.3333333   0.0000000  -0.2999629), wk =   0.0070547
        k(   73) = (   0.4444444   0.0000000   0.0000000), wk =   0.0035273
        k(   74) = (   0.4444444   0.0000000  -0.0999876), wk =   0.0070547
        k(   75) = (   0.4444444   0.0000000  -0.1999753), wk =   0.0070547
        k(   76) = (   0.4444444   0.0000000  -0.2999629), wk =   0.0070547
        k(   77) = (   0.2222222   0.1111111   0.0000000), wk =   0.0070547
        k(   78) = (   0.2222222   0.1111111  -0.0999876), wk =   0.0141093
        k(   79) = (   0.2222222   0.1111111  -0.1999753), wk =   0.0141093
        k(   80) = (   0.2222222   0.1111111  -0.2999629), wk =   0.0141093
        k(   81) = (   0.3333333   0.1111111   0.0000000), wk =   0.0070547
        k(   82) = (   0.3333333   0.1111111  -0.0999876), wk =   0.0141093
        k(   83) = (   0.3333333   0.1111111  -0.1999753), wk =   0.0141093
        k(   84) = (   0.3333333   0.1111111  -0.2999629), wk =   0.0141093
        k(   85) = (   0.4444444   0.1111111   0.0000000), wk =   0.0070547
        k(   86) = (   0.4444444   0.1111111  -0.0999876), wk =   0.0141093
        k(   87) = (   0.4444444   0.1111111  -0.1999753), wk =   0.0141093
        k(   88) = (   0.4444444   0.1111111  -0.2999629), wk =   0.0141093
        k(   89) = (   0.3333333   0.2222222   0.0000000), wk =   0.0070547
        k(   90) = (   0.3333333   0.2222222  -0.0999876), wk =   0.0141093
        k(   91) = (   0.3333333   0.2222222  -0.1999753), wk =   0.0141093
        k(   92) = (   0.3333333   0.2222222  -0.2999629), wk =   0.0141093
        k(   93) = (   0.4444444   0.2222222   0.0000000), wk =   0.0070547
        k(   94) = (   0.4444444   0.2222222  -0.0999876), wk =   0.0141093
        k(   95) = (   0.4444444   0.2222222  -0.1999753), wk =   0.0141093
        k(   96) = (   0.4444444   0.2222222  -0.2999629), wk =   0.0141093
        k(   97) = (   0.4444444   0.3333333   0.0000000), wk =   0.0070547
        k(   98) = (   0.4444444   0.3333333  -0.0999876), wk =   0.0141093
        k(   99) = (   0.4444444   0.3333333  -0.1999753), wk =   0.0141093
        k(  100) = (   0.4444444   0.3333333  -0.2999629), wk =   0.0141093

                       cryst. coord.
        k(    1) = (   0.0000000   0.0000000   0.0000000), wk =   0.0017637
        k(    2) = (   0.0000000   0.0000000   0.1428571), wk =   0.0035273
        k(    3) = (   0.0000000   0.0000000   0.2857143), wk =   0.0035273
        k(    4) = (   0.0000000   0.0000000   0.4285714), wk =   0.0035273
        k(    5) = (   0.0000000   0.1111111   0.0000000), wk =   0.0035273
        k(    6) = (   0.0000000   0.1111111   0.1428571), wk =   0.0070547
        k(    7) = (   0.0000000   0.1111111   0.2857143), wk =   0.0070547
        k(    8) = (   0.0000000   0.1111111   0.4285714), wk =   0.0070547
        k(    9) = (   0.0000000   0.2222222   0.0000000), wk =   0.0035273
        k(   10) = (   0.0000000   0.2222222   0.1428571), wk =   0.0070547
        k(   11) = (   0.0000000   0.2222222   0.2857143), wk =   0.0070547
        k(   12) = (   0.0000000   0.2222222   0.4285714), wk =   0.0070547
        k(   13) = (   0.0000000   0.3333333   0.0000000), wk =   0.0035273
        k(   14) = (   0.0000000   0.3333333   0.1428571), wk =   0.0070547
        k(   15) = (   0.0000000   0.3333333   0.2857143), wk =   0.0070547
        k(   16) = (   0.0000000   0.3333333   0.4285714), wk =   0.0070547
        k(   17) = (   0.0000000   0.4444444   0.0000000), wk =   0.0035273
        k(   18) = (   0.0000000   0.4444444   0.1428571), wk =   0.0070547
        k(   19) = (   0.0000000   0.4444444   0.2857143), wk =   0.0070547
        k(   20) = (   0.0000000   0.4444444   0.4285714), wk =   0.0070547
        k(   21) = (   0.1111111   0.1111111   0.0000000), wk =   0.0070547
        k(   22) = (   0.1111111   0.1111111   0.1428571), wk =   0.0141093
        k(   23) = (   0.1111111   0.1111111   0.2857143), wk =   0.0141093
        k(   24) = (   0.1111111   0.1111111   0.4285714), wk =   0.0141093
        k(   25) = (   0.1111111   0.2222222   0.0000000), wk =   0.0070547
        k(   26) = (   0.1111111   0.2222222   0.1428571), wk =   0.0141093
        k(   27) = (   0.1111111   0.2222222   0.2857143), wk =   0.0141093
        k(   28) = (   0.1111111   0.2222222   0.4285714), wk =   0.0141093
        k(   29) = (   0.1111111   0.3333333   0.0000000), wk =   0.0070547
        k(   30) = (   0.1111111   0.3333333   0.1428571), wk =   0.0141093
        k(   31) = (   0.1111111   0.3333333   0.2857143), wk =   0.0141093
        k(   32) = (   0.1111111   0.3333333   0.4285714), wk =   0.0141093
        k(   33) = (   0.1111111   0.4444444   0.0000000), wk =   0.0070547
        k(   34) = (   0.1111111   0.4444444   0.1428571), wk =   0.0141093
        k(   35) = (   0.1111111   0.4444444   0.2857143), wk =   0.0141093
        k(   36) = (   0.1111111   0.4444444   0.4285714), wk =   0.0141093
        k(   37) = (   0.2222222   0.2222222   0.0000000), wk =   0.0070547
        k(   38) = (   0.2222222   0.2222222   0.1428571), wk =   0.0141093
        k(   39) = (   0.2222222   0.2222222   0.2857143), wk =   0.0141093
        k(   40) = (   0.2222222   0.2222222   0.4285714), wk =   0.0141093
        k(   41) = (   0.2222222   0.3333333   0.0000000), wk =   0.0070547
        k(   42) = (   0.2222222   0.3333333   0.1428571), wk =   0.0141093
        k(   43) = (   0.2222222   0.3333333   0.2857143), wk =   0.0141093
        k(   44) = (   0.2222222   0.3333333   0.4285714), wk =   0.0141093
        k(   45) = (   0.2222222   0.4444444   0.0000000), wk =   0.0070547
        k(   46) = (   0.2222222   0.4444444   0.1428571), wk =   0.0141093
        k(   47) = (   0.2222222   0.4444444   0.2857143), wk =   0.0141093
        k(   48) = (   0.2222222   0.4444444   0.4285714), wk =   0.0141093
        k(   49) = (   0.3333333   0.3333333   0.0000000), wk =   0.0070547
        k(   50) = (   0.3333333   0.3333333   0.1428571), wk =   0.0141093
        k(   51) = (   0.3333333   0.3333333   0.2857143), wk =   0.0141093
        k(   52) = (   0.3333333   0.3333333   0.4285714), wk =   0.0141093
        k(   53) = (   0.3333333   0.4444444   0.0000000), wk =   0.0070547
        k(   54) = (   0.3333333   0.4444444   0.1428571), wk =   0.0141093
        k(   55) = (   0.3333333   0.4444444   0.2857143), wk =   0.0141093
        k(   56) = (   0.3333333   0.4444444   0.4285714), wk =   0.0141093
        k(   57) = (   0.4444444   0.4444444   0.0000000), wk =   0.0070547
        k(   58) = (   0.4444444   0.4444444   0.1428571), wk =   0.0141093
        k(   59) = (   0.4444444   0.4444444   0.2857143), wk =   0.0141093
        k(   60) = (   0.4444444   0.4444444   0.4285714), wk =   0.0141093
        k(   61) = (   0.1111111   0.0000000   0.0000000), wk =   0.0035273
        k(   62) = (   0.1111111   0.0000000  -0.1428571), wk =   0.0070547
        k(   63) = (   0.1111111   0.0000000  -0.2857143), wk =   0.0070547
        k(   64) = (   0.1111111   0.0000000  -0.4285714), wk =   0.0070547
        k(   65) = (   0.2222222   0.0000000   0.0000000), wk =   0.0035273
        k(   66) = (   0.2222222   0.0000000  -0.1428571), wk =   0.0070547
        k(   67) = (   0.2222222   0.0000000  -0.2857143), wk =   0.0070547
        k(   68) = (   0.2222222   0.0000000  -0.4285714), wk =   0.0070547
        k(   69) = (   0.3333333   0.0000000   0.0000000), wk =   0.0035273
        k(   70) = (   0.3333333   0.0000000  -0.1428571), wk =   0.0070547
        k(   71) = (   0.3333333   0.0000000  -0.2857143), wk =   0.0070547
        k(   72) = (   0.3333333   0.0000000  -0.4285714), wk =   0.0070547
        k(   73) = (   0.4444444   0.0000000   0.0000000), wk =   0.0035273
        k(   74) = (   0.4444444   0.0000000  -0.1428571), wk =   0.0070547
        k(   75) = (   0.4444444   0.0000000  -0.2857143), wk =   0.0070547
        k(   76) = (   0.4444444   0.0000000  -0.4285714), wk =   0.0070547
        k(   77) = (   0.2222222   0.1111111   0.0000000), wk =   0.0070547
        k(   78) = (   0.2222222   0.1111111  -0.1428571), wk =   0.0141093
        k(   79) = (   0.2222222   0.1111111  -0.2857143), wk =   0.0141093
        k(   80) = (   0.2222222   0.1111111  -0.4285714), wk =   0.0141093
        k(   81) = (   0.3333333   0.1111111   0.0000000), wk =   0.0070547
        k(   82) = (   0.3333333   0.1111111  -0.1428571), wk =   0.0141093
        k(   83) = (   0.3333333   0.1111111  -0.2857143), wk =   0.0141093
        k(   84) = (   0.3333333   0.1111111  -0.4285714), wk =   0.0141093
        k(   85) = (   0.4444444   0.1111111   0.0000000), wk =   0.0070547
        k(   86) = (   0.4444444   0.1111111  -0.1428571), wk =   0.0141093
        k(   87) = (   0.4444444   0.1111111  -0.2857143), wk =   0.0141093
        k(   88) = (   0.4444444   0.1111111  -0.4285714), wk =   0.0141093
        k(   89) = (   0.3333333   0.2222222   0.0000000), wk =   0.0070547
        k(   90) = (   0.3333333   0.2222222  -0.1428571), wk =   0.0141093
        k(   91) = (   0.3333333   0.2222222  -0.2857143), wk =   0.0141093
        k(   92) = (   0.3333333   0.2222222  -0.4285714), wk =   0.0141093
        k(   93) = (   0.4444444   0.2222222   0.0000000), wk =   0.0070547
        k(   94) = (   0.4444444   0.2222222  -0.1428571), wk =   0.0141093
        k(   95) = (   0.4444444   0.2222222  -0.2857143), wk =   0.0141093
        k(   96) = (   0.4444444   0.2222222  -0.4285714), wk =   0.0141093
        k(   97) = (   0.4444444   0.3333333   0.0000000), wk =   0.0070547
        k(   98) = (   0.4444444   0.3333333  -0.1428571), wk =   0.0141093
        k(   99) = (   0.4444444   0.3333333  -0.2857143), wk =   0.0141093
        k(  100) = (   0.4444444   0.3333333  -0.4285714), wk =   0.0141093

     Dense  grid:    55993 G-vectors     FFT dimensions: (  45,  45,  64)

     Smooth grid:    10451 G-vectors     FFT dimensions: (  25,  25,  36)

     Dynamical RAM for                 wfc:       0.18 MB

     Dynamical RAM for     wfc (w. buffer):      17.82 MB

     Dynamical RAM for           str. fact:       0.08 MB

     Dynamical RAM for           local pot:       0.00 MB

     Dynamical RAM for          nlocal pot:       0.06 MB

     Dynamical RAM for                qrad:      11.75 MB

     Dynamical RAM for          rho,v,vnew:       1.02 MB

     Dynamical RAM for           G-vectors:       0.15 MB

     Dynamical RAM for          h,s,v(r/c):       1.76 MB

     Dynamical RAM for          <psi|beta>:       0.20 MB

     Dynamical RAM for                 psi:       0.35 MB

     Dynamical RAM for                hpsi:       0.35 MB

     Dynamical RAM for                spsi:       0.35 MB

     Dynamical RAM for      wfcinit/wfcrot:       0.49 MB

     Dynamical RAM for           addusdens:      23.84 MB

     Estimated static dynamical RAM per process >      31.37 MB

     Estimated max dynamical RAM per process >      55.21 MB

     Estimated total dynamical RAM >       1.19 GB

     Check: negative core charge=   -0.000008
     Generating pointlists ...
     new r_m :   0.4125 (alat units)  1.9539 (a.u.) for type    1
     new r_m :   0.4125 (alat units)  1.9539 (a.u.) for type    2
     Message from routine read_rhog:
     some spin components not found
 
 -----------
Spin angles Theta, Phi (degree) =  90.0000  0.0000
 -----------

     The potential is recalculated from file :
     ./work/pwscf.save/charge-density

     Starting wfcs are   44 randomized atomic wfcs +   54 random wfcs

     Band Structure Calculation
     Davidson diagonalization with overlap

     Computing kpt #:     1  of   100
     total cpu time spent up to now is        1.5 secs

     Computing kpt #:     2  of   100
     total cpu time spent up to now is        2.2 secs

     Computing kpt #:     3  of   100
     total cpu time spent up to now is        3.1 secs

     Computing kpt #:     4  of   100
     total cpu time spent up to now is        3.9 secs

     Computing kpt #:     5  of   100
     total cpu time spent up to now is        4.5 secs

     Computing kpt #:     6  of   100
     total cpu time spent up to now is        5.2 secs

     Computing kpt #:     7  of   100
     total cpu time spent up to now is        6.1 secs

     Computing kpt #:     8  of   100
     total cpu time spent up to now is        7.0 secs

     Computing kpt #:     9  of   100
     total cpu time spent up to now is        7.8 secs

     Computing kpt #:    10  of   100
     total cpu time spent up to now is        8.6 secs

     Computing kpt #:    11  of   100
     total cpu time spent up to now is        9.3 secs

     Computing kpt #:    12  of   100
     total cpu time spent up to now is       10.2 secs

     Computing kpt #:    13  of   100
     total cpu time spent up to now is       11.1 secs

     Computing kpt #:    14  of   100
     total cpu time spent up to now is       11.9 secs

     Computing kpt #:    15  of   100
     total cpu time spent up to now is       12.7 secs

     Computing kpt #:    16  of   100
     total cpu time spent up to now is       13.3 secs

     Computing kpt #:    17  of   100
     total cpu time spent up to now is       14.1 secs

     Computing kpt #:    18  of   100
     c_bands:  1 eigenvalues not converged
     total cpu time spent up to now is       15.8 secs

     Computing kpt #:    19  of   100
     total cpu time spent up to now is       16.6 secs

     Computing kpt #:    20  of   100
     total cpu time spent up to now is       17.4 secs

     Computing kpt #:    21  of   100
     total cpu time spent up to now is       18.1 secs

     Computing kpt #:    22  of   100
     total cpu time spent up to now is       18.8 secs

     Computing kpt #:    23  of   100
     total cpu time spent up to now is       19.8 secs

     Computing kpt #:    24  of   100
     total cpu time spent up to now is       20.6 secs

     Computing kpt #:    25  of   100
     total cpu time spent up to now is       21.4 secs

     Computing kpt #:    26  of   100
     total cpu time spent up to now is       22.2 secs

     Computing kpt #:    27  of   100
     total cpu time spent up to now is       23.0 secs

     Computing kpt #:    28  of   100
     total cpu time spent up to now is       23.8 secs

     Computing kpt #:    29  of   100
     total cpu time spent up to now is       24.7 secs

     Computing kpt #:    30  of   100
     total cpu time spent up to now is       25.6 secs

     Computing kpt #:    31  of   100
     total cpu time spent up to now is       26.3 secs

     Computing kpt #:    32  of   100
     total cpu time spent up to now is       27.0 secs

     Computing kpt #:    33  of   100
     total cpu time spent up to now is       27.8 secs

     Computing kpt #:    34  of   100
     total cpu time spent up to now is       28.6 secs

     Computing kpt #:    35  of   100
     total cpu time spent up to now is       29.3 secs

     Computing kpt #:    36  of   100
     total cpu time spent up to now is       30.2 secs

     Computing kpt #:    37  of   100
     total cpu time spent up to now is       31.0 secs

     Computing kpt #:    38  of   100
     total cpu time spent up to now is       31.8 secs

     Computing kpt #:    39  of   100
     total cpu time spent up to now is       32.7 secs

     Computing kpt #:    40  of   100
     total cpu time spent up to now is       33.6 secs

     Computing kpt #:    41  of   100
     total cpu time spent up to now is       34.4 secs

     Computing kpt #:    42  of   100
     total cpu time spent up to now is       35.3 secs

     Computing kpt #:    43  of   100
     total cpu time spent up to now is       36.2 secs

     Computing kpt #:    44  of   100
     total cpu time spent up to now is       37.1 secs

     Computing kpt #:    45  of   100
     total cpu time spent up to now is       38.0 secs

     Computing kpt #:    46  of   100
     total cpu time spent up to now is       39.0 secs

     Computing kpt #:    47  of   100
     total cpu time spent up to now is       39.9 secs

     Computing kpt #:    48  of   100
     total cpu time spent up to now is       40.8 secs

     Computing kpt #:    49  of   100
     total cpu time spent up to now is       41.7 secs

     Computing kpt #:    50  of   100
     total cpu time spent up to now is       42.6 secs

     Computing kpt #:    51  of   100
     total cpu time spent up to now is       43.5 secs

     Computing kpt #:    52  of   100
     total cpu time spent up to now is       44.6 secs

     Computing kpt #:    53  of   100
     total cpu time spent up to now is       45.5 secs

     Computing kpt #:    54  of   100
     total cpu time spent up to now is       46.3 secs

     Computing kpt #:    55  of   100
     total cpu time spent up to now is       47.3 secs

     Computing kpt #:    56  of   100
     total cpu time spent up to now is       48.3 secs

     Computing kpt #:    57  of   100
     total cpu time spent up to now is       49.2 secs

     Computing kpt #:    58  of   100
     total cpu time spent up to now is       50.1 secs

     Computing kpt #:    59  of   100
     total cpu time spent up to now is       51.3 secs

     Computing kpt #:    60  of   100
     total cpu time spent up to now is       52.2 secs

     Computing kpt #:    61  of   100
     total cpu time spent up to now is       52.8 secs

     Computing kpt #:    62  of   100
     total cpu time spent up to now is       53.6 secs

     Computing kpt #:    63  of   100
     total cpu time spent up to now is       54.5 secs

     Computing kpt #:    64  of   100
     total cpu time spent up to now is       55.4 secs

     Computing kpt #:    65  of   100
     total cpu time spent up to now is       56.2 secs

     Computing kpt #:    66  of   100
     total cpu time spent up to now is       56.9 secs

     Computing kpt #:    67  of   100
     total cpu time spent up to now is       57.6 secs

     Computing kpt #:    68  of   100
     total cpu time spent up to now is       58.5 secs

     Computing kpt #:    69  of   100
     total cpu time spent up to now is       59.4 secs

     Computing kpt #:    70  of   100
     total cpu time spent up to now is       60.2 secs

     Computing kpt #:    71  of   100
     total cpu time spent up to now is       61.0 secs

     Computing kpt #:    72  of   100
     total cpu time spent up to now is       61.7 secs

     Computing kpt #:    73  of   100
     total cpu time spent up to now is       62.6 secs

     Computing kpt #:    74  of   100
     total cpu time spent up to now is       64.1 secs

     Computing kpt #:    75  of   100
     total cpu time spent up to now is       64.9 secs

     Computing kpt #:    76  of   100
     total cpu time spent up to now is       65.7 secs

     Computing kpt #:    77  of   100
     total cpu time spent up to now is       66.5 secs

     Computing kpt #:    78  of   100
     total cpu time spent up to now is       67.3 secs

     Computing kpt #:    79  of   100
     total cpu time spent up to now is       68.0 secs

     Computing kpt #:    80  of   100
     total cpu time spent up to now is       68.9 secs

     Computing kpt #:    81  of   100
     total cpu time spent up to now is       69.8 secs

     Computing kpt #:    82  of   100
     total cpu time spent up to now is       70.7 secs

     Computing kpt #:    83  of   100
     total cpu time spent up to now is       71.4 secs

     Computing kpt #:    84  of   100
     total cpu time spent up to now is       72.2 secs

     Computing kpt #:    85  of   100
     total cpu time spent up to now is       72.9 secs

     Computing kpt #:    86  of   100
     total cpu time spent up to now is       73.7 secs

     Computing kpt #:    87  of   100
     total cpu time spent up to now is       74.5 secs

     Computing kpt #:    88  of   100
     total cpu time spent up to now is       75.3 secs

     Computing kpt #:    89  of   100
     total cpu time spent up to now is       76.2 secs

     Computing kpt #:    90  of   100
     total cpu time spent up to now is       77.0 secs

     Computing kpt #:    91  of   100
     total cpu time spent up to now is       77.9 secs

     Computing kpt #:    92  of   100
     total cpu time spent up to now is       78.8 secs

     Computing kpt #:    93  of   100
     total cpu time spent up to now is       79.7 secs

     Computing kpt #:    94  of   100
     total cpu time spent up to now is       80.7 secs

     Computing kpt #:    95  of   100
     total cpu time spent up to now is       81.6 secs

     Computing kpt #:    96  of   100
     total cpu time spent up to now is       82.5 secs

     Computing kpt #:    97  of   100
     total cpu time spent up to now is       83.3 secs

     Computing kpt #:    98  of   100
     total cpu time spent up to now is       84.2 secs

     Computing kpt #:    99  of   100
     total cpu time spent up to now is       85.1 secs

     Computing kpt #:   100  of   100
     total cpu time spent up to now is       86.3 secs

     ethr =  3.85E-11,  avg # of iterations = 33.7

     total cpu time spent up to now is       86.4 secs

     End of band structure calculation

------
 eband, Ef (eV) =   -121.427018792446        15.9691510195589     
------


          k = 0.0000 0.0000 0.0000 (  1297 PWs)   bands (ev):

   -72.5882 -69.3741 -39.2785 -38.6442 -38.0726 -35.7478 -35.1942 -34.9035
     7.0046   7.0803  10.8336  11.5390  11.9264  12.6334  13.3660  13.4027
    13.4410  14.3724  14.5051  14.6391  14.6462  14.9839  15.2677  15.4967
    15.5283  15.5673  16.2860  17.6567  17.6602  18.0993  18.1284  18.2176
    25.0164  26.0191  30.5784  30.5784  30.8396  30.8396  35.4374  35.8634
    38.5899  38.8577  39.0808  39.5497  42.7279  42.8763  42.9485  43.0391
    43.1602  43.1664  45.4296  45.4318  45.5756  45.8558  45.8613  46.0019
    48.0770  48.4642  54.7597  55.2491  55.7232  55.7591  56.2965  56.3012
    56.5279  57.1020  57.1286  57.6364  59.7781  59.9764  64.2569  64.3432
    65.6395  65.6395  65.6617  65.6617  66.8286  66.8287  67.0652  67.0652
    70.0170  70.8956  71.9600  71.9618  72.7136  72.7404  74.8033  74.9081
    75.3884  75.3886  75.6707  76.1206  76.1207  76.2581  79.5197  79.5198
    80.0729  80.0729

     occupation numbers 
     1.0000   1.0000   1.0000   1.0000   1.0000   1.0000   1.0000   1.0000
     1.0000   1.0000   1.0000   1.0000   1.0000   1.0000   1.0000   1.0000
     1.0000   1.0000   1.0000   1.0000   1.0000   1.0000   1.0000   1.0000
     1.0000   1.0001  -0.0024  -0.0000  -0.0000  -0.0000  -0.0000  -0.0000
    -0.0000  -0.0000  -0.0000  -0.0000  -0.0000  -0.0000  -0.0000  -0.0000
    -0.0000  -0.0000  -0.0000  -0.0000  -0.0000  -0.0000  -0.0000  -0.0000
    -0.0000  -0.0000  -0.0000  -0.0000  -0.0000  -0.0000  -0.0000  -0.0000
    -0.0000  -0.0000  -0.0000  -0.0000  -0.0000  -0.0000  -0.0000  -0.0000
    -0.0000  -0.0000  -0.0000  -0.0000  -0.0000  -0.0000  -0.0000  -0.0000
    -0.0000  -0.0000  -0.0000  -0.0000  -0.0000  -0.0000  -0.0000  -0.0000
    -0.0000  -0.0000  -0.0000  -0.0000  -0.0000  -0.0000  -0.0000  -0.0000
    -0.0000  -0.0000  -0.0000  -0.0000  -0.0000  -0.0000  -0.0000  -0.0000
    -0.0000  -0.0000

          k = 0.0000 0.0000 0.1000 (  1305 PWs)   bands (ev):

   -72.5882 -69.3741 -39.2789 -38.6446 -38.0731 -35.7484 -35.1946 -34.9040
     7.2644   7.3404  10.8678  11.6218  11.8961  12.7168  13.3003  13.4823
    13.4866  14.2871  14.5378  14.6947  14.6984  14.8828  15.2260  15.3741
    15.3931  15.5609  16.0536  16.9732  17.4354  17.5201  17.5324  18.0850
    26.5889  27.3921  30.9838  30.9840  31.2626  31.2626  35.4943  35.8718
    38.3097  38.4237  39.1671  39.6254  41.1062  41.1079  41.4622  41.4658
    41.6093  41.7164  46.5912  46.9091  47.2425  47.2429  47.5011  47.5013
    49.2884  49.4002  51.5201  51.7803  56.2611  56.2619  56.8846  56.8847
    57.1848  57.6554  59.5566  59.8333  60.4183  60.8814  62.3897  62.3897
    62.4319  62.4319  63.7156  63.8500  67.1708  67.2104  70.1141  70.1142
    70.3393  70.3396  70.7365  71.5655  72.3216  72.3226  72.9921  73.0022
    73.1177  73.1802  76.3300  76.8789  80.1193  80.1753  83.2877  83.2878
    83.8595  83.8596

     occupation numbers 
     1.0000   1.0000   1.0000   1.0000   1.0000   1.0000   1.0000   1.0000
     1.0000   1.0000   1.0000   1.0000   1.0000   1.0000   1.0000   1.0000
     1.0000   1.0000   1.0000   1.0000   1.0000   1.0000   1.0000   1.0000
     1.0000   1.0001   0.0710  -0.0000  -0.0000  -0.0000  -0.0000  -0.0000
    -0.0000  -0.0000  -0.0000  -0.0000  -0.0000  -0.0000  -0.0000  -0.0000
    -0.0000  -0.0000  -0.0000  -0.0000  -0.0000  -0.0000  -0.0000  -0.0000
    -0.0000  -0.0000  -0.0000  -0.0000  -0.0000  -0.0000  -0.0000  -0.0000
    -0.0000  -0.0000  -0.0000  -0.0000  -0.0000  -0.0000  -0.0000  -0.0000
    -0.0000  -0.0000  -0.0000  -0.0000  -0.0000  -0.0000  -0.0000  -0.0000
    -0.0000  -0.0000  -0.0000  -0.0000  -0.0000  -0.0000  -0.0000  -0.0000
    -0.0000  -0.0000  -0.0000  -0.0000  -0.0000  -0.0000  -0.0000  -0.0000
    -0.0000  -0.0000  -0.0000  -0.0000  -0.0000  -0.0000  -0.0000  -0.0000
    -0.0000  -0.0000

          k = 0.0000 0.0000 0.2000 (  1317 PWs)   bands (ev):

   -72.5882 -69.3740 -39.2804 -38.6449 -38.0741 -35.7501 -35.1948 -34.9054
     8.0161   8.0956  10.8384  11.6013  11.8560  12.9415  13.0357  13.7061
    13.7144  14.0574  14.5437  14.7008  14.8319  14.8373  14.9954  14.9992
    15.1042  15.1527  15.2345  15.5818  16.5734  17.1960  17.2002  18.0533
    29.8154  30.3662  32.1330  32.1337  32.4522  32.4523  35.6643  35.8950
    37.6105  37.7960  38.5330  38.5333  38.9541  38.9543  39.2042  39.3012
    39.7851  40.1962  45.9187  46.6302  49.1340  49.2960  49.8687  49.8687
    49.9843  49.9843  53.3754  53.5145  57.3449  57.7042  57.9000  57.9000
    58.4455  58.4455  58.8852  58.8852  59.0218  59.0218  59.0653  59.5293
    61.7643  61.7941  61.9280  61.9589  64.8699  65.3757  67.7072  67.7074
    68.4351  68.4353  72.7133  73.1933  73.3969  73.4395  74.7074  74.7077
    74.9709  74.9710  78.4171  78.8567  83.6832  83.8115  83.8697  84.3900
    87.0963  87.1245

     occupation numbers 
     1.0000   1.0000   1.0000   1.0000   1.0000   1.0000   1.0000   1.0000
     1.0000   1.0000   1.0000   1.0000   1.0000   1.0000   1.0000   1.0000
     1.0000   1.0000   1.0000   1.0000   1.0000   1.0000   1.0000   1.0000
     1.0000   1.0000   1.0000   1.0002  -0.0000  -0.0000  -0.0000  -0.0000
    -0.0000  -0.0000  -0.0000  -0.0000  -0.0000  -0.0000  -0.0000  -0.0000
    -0.0000  -0.0000  -0.0000  -0.0000  -0.0000  -0.0000  -0.0000  -0.0000
    -0.0000  -0.0000  -0.0000  -0.0000  -0.0000  -0.0000  -0.0000  -0.0000
    -0.0000  -0.0000  -0.0000  -0.0000  -0.0000  -0.0000  -0.0000  -0.0000
    -0.0000  -0.0000  -0.0000  -0.0000  -0.0000  -0.0000  -0.0000  -0.0000
    -0.0000  -0.0000  -0.0000  -0.0000  -0.0000  -0.0000  -0.0000  -0.0000
    -0.0000  -0.0000  -0.0000  -0.0000  -0.0000  -0.0000  -0.0000  -0.0000
    -0.0000  -0.0000  -0.0000  -0.0000  -0.0000  -0.0000  -0.0000  -0.0000
    -0.0000  -0.0000

          k = 0.0000 0.0000 0.3000 (  1310 PWs)   bands (ev):

   -72.5881 -69.3739 -39.2810 -38.6449 -38.0746 -35.7510 -35.1948 -34.9061
     9.1452   9.2432  10.2963  10.6545  12.1869  12.6768  13.1966  13.7311
    13.9494  14.0725  14.1021  14.2855  14.5001  14.5572  14.6375  14.8041
    14.9674  15.0017  15.0507  15.6021  16.2333  16.9118  16.9164  18.0278
    33.4321  33.7014  33.8723  33.8887  34.2080  34.2090  35.9022  35.9189
    36.0778  36.0786  36.5289  36.5301  36.8093  36.9568  36.9732  37.4552
    40.4977  41.0571  42.4964  43.1622  52.5845  52.5847  52.6273  52.6398
    52.6425  52.6810  55.5895  55.5896  55.6706  55.6706  56.6989  56.7408
    56.9282  56.9348  57.5468  57.7536  58.6298  59.2957  59.6833  59.7129
    60.4469  60.4473  61.1977  61.1978  63.9468  63.9470  64.7090  64.7091
    68.2522  68.6923  71.5571  71.8494  75.5996  76.2043  79.0241  79.0242
    79.3315  79.3316  79.5542  80.2020  81.6388  81.9144  83.4406  83.4407
    83.7990  83.7992

     occupation numbers 
     1.0000   1.0000   1.0000   1.0000   1.0000   1.0000   1.0000   1.0000
     1.0000   1.0000   1.0000   1.0000   1.0000   1.0000   1.0000   1.0000
     1.0000   1.0000   1.0000   1.0000   1.0000   1.0000   1.0000   1.0000
     1.0000   1.0000   1.0000   1.0005  -0.0096  -0.0000  -0.0000  -0.0000
    -0.0000  -0.0000  -0.0000  -0.0000  -0.0000  -0.0000  -0.0000  -0.0000
    -0.0000  -0.0000  -0.0000  -0.0000  -0.0000  -0.0000  -0.0000  -0.0000
    -0.0000  -0.0000  -0.0000  -0.0000  -0.0000  -0.0000  -0.0000  -0.0000
    -0.0000  -0.0000  -0.0000  -0.0000  -0.0000  -0.0000  -0.0000  -0.0000
    -0.0000  -0.0000  -0.0000  -0.0000  -0.0000  -0.0000  -0.0000  -0.0000
    -0.0000  -0.0000  -0.0000  -0.0000  -0.0000  -0.0000  -0.0000  -0.0000
    -0.0000  -0.0000  -0.0000  -0.0000  -0.0000  -0.0000  -0.0000  -0.0000
    -0.0000  -0.0000  -0.0000  -0.0000  -0.0000  -0.0000  -0.0000  -0.0000
    -0.0000  -0.0000

          k = 0.0000 0.1111 0.0000 (  1306 PWs)   bands (ev):

   -72.5852 -69.3707 -39.2864 -38.6429 -38.0891 -35.7573 -35.1922 -34.9215
     7.3245   7.4016  11.0047  11.6586  12.1091  12.7398  13.2911  13.4731
    13.4995  14.3923  14.4185  14.5038  14.7003  14.8758  15.0802  15.1296
    15.4523  15.4715  16.3115  16.5292  17.6139  17.9273  19.0903  19.6824
    25.0753  26.0448  28.1496  28.4693  31.1011  31.3236  36.4834  36.8456
    37.8682  37.8953  39.9097  40.1495  41.0734  41.4832  41.5761  41.7879
    43.3749  43.5862  45.5627  45.9701  46.0117  46.1190  48.0795  48.2759
    50.7839  50.8366  51.9424  52.4880  53.8403  54.3615  55.5650  56.1420
    57.5966  57.7696  58.8788  59.3695  60.1894  60.2267  61.3351  61.8322
    64.3676  64.5623  64.8037  64.8699  68.5375  68.5503  69.6680  69.6855
    71.4432  71.5675  71.6922  71.7913  71.9446  72.0988  75.5390  75.5580
    76.7790  76.8908  77.4114  77.6622  78.8230  78.9480  79.1303  79.3533
    79.6885  80.2417

     occupation numbers 
     1.0000   1.0000   1.0000   1.0000   1.0000   1.0000   1.0000   1.0000
     1.0000   1.0000   1.0000   1.0000   1.0000   1.0000   1.0000   1.0000
     1.0000   1.0000   1.0000   1.0000   1.0000   1.0000   1.0000   1.0000
     1.0000   1.0000  -0.0011  -0.0000  -0.0000  -0.0000  -0.0000  -0.0000
    -0.0000  -0.0000  -0.0000  -0.0000  -0.0000  -0.0000  -0.0000  -0.0000
    -0.0000  -0.0000  -0.0000  -0.0000  -0.0000  -0.0000  -0.0000  -0.0000
    -0.0000  -0.0000  -0.0000  -0.0000  -0.0000  -0.0000  -0.0000  -0.0000
    -0.0000  -0.0000  -0.0000  -0.0000  -0.0000  -0.0000  -0.0000  -0.0000
    -0.0000  -0.0000  -0.0000  -0.0000  -0.0000  -0.0000  -0.0000  -0.0000
    -0.0000  -0.0000  -0.0000  -0.0000  -0.0000  -0.0000  -0.0000  -0.0000
    -0.0000  -0.0000  -0.0000  -0.0000  -0.0000  -0.0000  -0.0000  -0.0000
    -0.0000  -0.0000  -0.0000  -0.0000  -0.0000  -0.0000  -0.0000  -0.0000
    -0.0000  -0.0000

          k = 0.0000 0.1111 0.1000 (  1309 PWs)   bands (ev):

   -72.5852 -69.3707 -39.2868 -38.6432 -38.0894 -35.7578 -35.1926 -34.9218
     7.5779   7.6561  11.0457  11.7359  12.0880  12.8171  13.2473  13.5224
    13.5295  14.3184  14.4360  14.5321  14.6572  14.7435  15.0110  15.0367
    15.4287  15.4590  15.9037  16.5085  17.4732  17.9157  17.9624  18.8972
    26.7098  27.4762  28.5066  28.8514  31.4862  31.7275  36.3454  36.4972
    36.6437  37.0567  39.8383  39.9096  41.1979  41.4963  41.5921  41.8431
    42.3542  42.6813  46.1137  46.2387  47.2628  47.2757  47.3838  47.5029
    50.9615  51.5895  52.5445  53.0137  53.0653  53.1376  56.3608  56.7565
    56.8298  57.0422  58.5348  58.6225  61.5413  61.6913  62.0532  62.2059
    64.3439  64.5567  64.9991  65.1268  66.7321  66.9088  67.7612  68.2081
    69.4295  69.5222  71.7687  72.2785  72.9429  73.4073  75.5860  76.1552
    76.2563  76.2690  77.2536  77.7887  78.5931  78.8487  83.5169  84.1013
    84.3989  84.7306

     occupation numbers 
     1.0000   1.0000   1.0000   1.0000   1.0000   1.0000   1.0000   1.0000
     1.0000   1.0000   1.0000   1.0000   1.0000   1.0000   1.0000   1.0000
     1.0000   1.0000   1.0000   1.0000   1.0000   1.0000   1.0000   1.0000
     1.0000   1.0000   0.8596  -0.0000  -0.0000  -0.0000  -0.0000  -0.0000
    -0.0000  -0.0000  -0.0000  -0.0000  -0.0000  -0.0000  -0.0000  -0.0000
    -0.0000  -0.0000  -0.0000  -0.0000  -0.0000  -0.0000  -0.0000  -0.0000
    -0.0000  -0.0000  -0.0000  -0.0000  -0.0000  -0.0000  -0.0000  -0.0000
    -0.0000  -0.0000  -0.0000  -0.0000  -0.0000  -0.0000  -0.0000  -0.0000
    -0.0000  -0.0000  -0.0000  -0.0000  -0.0000  -0.0000  -0.0000  -0.0000
    -0.0000  -0.0000  -0.0000  -0.0000  -0.0000  -0.0000  -0.0000  -0.0000
    -0.0000  -0.0000  -0.0000  -0.0000  -0.0000  -0.0000  -0.0000  -0.0000
    -0.0000  -0.0000  -0.0000  -0.0000  -0.0000  -0.0000  -0.0000  -0.0000
    -0.0000  -0.0000

          k = 0.0000 0.1111 0.2000 (  1306 PWs)   bands (ev):

   -72.5851 -69.3706 -39.2877 -38.6433 -38.0900 -35.7590 -35.1926 -34.9228
     8.3096   8.3945  11.0359  11.8152  11.9560  13.0261  13.0312  13.6361
    13.6983  14.0428  14.2091  14.3578  14.6220  14.7459  14.8485  14.9305
    15.1170  15.3043  15.4579  16.1830  16.4150  17.2186  17.7862  17.9584
    29.2407  29.6413  30.2085  30.7185  32.5890  32.8713  34.3500  34.6929
    36.8712  37.1473  38.6180  38.6838  38.9038  39.3096  41.5859  41.8390
    42.3941  42.6722  45.2709  45.6870  47.7838  48.2652  49.3901  49.4954
    49.8515  49.9119  54.2053  54.6436  55.2607  55.6017  55.6119  55.6399
    56.3549  56.4084  58.0177  58.4882  60.7233  60.8335  62.1878  62.4399
    62.5127  62.9193  65.3807  65.4503  66.1829  66.6440  67.7972  67.8346
    68.2650  68.4977  70.2777  70.8783  70.9393  71.2297  77.4573  77.7019
    78.3757  78.7740  78.8572  79.2904  81.3166  81.8407  84.2071  84.5758
    85.2188  85.3595

     occupation numbers 
     1.0000   1.0000   1.0000   1.0000   1.0000   1.0000   1.0000   1.0000
     1.0000   1.0000   1.0000   1.0000   1.0000   1.0000   1.0000   1.0000
     1.0000   1.0000   1.0000   1.0000   1.0000   1.0000   1.0000   1.0000
     1.0000   1.0000   1.0000  -0.0244  -0.0000  -0.0000  -0.0000  -0.0000
    -0.0000  -0.0000  -0.0000  -0.0000  -0.0000  -0.0000  -0.0000  -0.0000
    -0.0000  -0.0000  -0.0000  -0.0000  -0.0000  -0.0000  -0.0000  -0.0000
    -0.0000  -0.0000  -0.0000  -0.0000  -0.0000  -0.0000  -0.0000  -0.0000
    -0.0000  -0.0000  -0.0000  -0.0000  -0.0000  -0.0000  -0.0000  -0.0000
    -0.0000  -0.0000  -0.0000  -0.0000  -0.0000  -0.0000  -0.0000  -0.0000
    -0.0000  -0.0000  -0.0000  -0.0000  -0.0000  -0.0000  -0.0000  -0.0000
    -0.0000  -0.0000  -0.0000  -0.0000  -0.0000  -0.0000  -0.0000  -0.0000
    -0.0000  -0.0000  -0.0000  -0.0000  -0.0000  -0.0000  -0.0000  -0.0000
    -0.0000  -0.0000

          k = 0.0000 0.1111 0.3000 (  1313 PWs)   bands (ev):

   -72.5850 -69.3705 -39.2886 -38.6436 -38.0908 -35.7601 -35.1929 -34.9237
     9.4039   9.5133  10.5193  10.8945  12.2703  12.7068  13.2623  13.4890
    13.5937  13.9701  14.1931  14.3151  14.4081  14.5267  14.8737  14.9638
    15.0203  15.0578  15.1145  15.4266  16.4337  17.0339  17.0739  17.9417
    30.6779  31.0196  32.4678  32.9406  33.8144  34.0948  34.2890  34.5729
    36.4584  36.8214  36.9082  36.9155  37.6484  37.9690  39.3182  39.6104
    42.5653  43.0651  44.1456  44.6997  49.3087  49.4087  51.2996  51.3783
    52.4590  52.5394  52.9743  52.9774  53.1866  53.3594  56.4965  56.6105
    56.9618  57.4772  59.6470  59.7485  59.8025  60.1316  60.5669  61.0316
    62.9313  62.9326  63.3007  63.8018  64.0415  64.5488  65.6006  66.2698
    69.4526  69.9341  72.1456  72.4797  72.9514  73.4930  76.8489  77.2542
    77.3883  77.5418  79.4348  79.6900  82.3346  82.7389  84.1949  84.5785
    86.4089  86.6958

     occupation numbers 
     1.0000   1.0000   1.0000   1.0000   1.0000   1.0000   1.0000   1.0000
     1.0000   1.0000   1.0000   1.0000   1.0000   1.0000   1.0000   1.0000
     1.0000   1.0000   1.0000   1.0000   1.0000   1.0000   1.0000   1.0000
     1.0000   1.0000   1.0000   1.0000  -0.0000  -0.0000  -0.0000  -0.0000
    -0.0000  -0.0000  -0.0000  -0.0000  -0.0000  -0.0000  -0.0000  -0.0000
    -0.0000  -0.0000  -0.0000  -0.0000  -0.0000  -0.0000  -0.0000  -0.0000
    -0.0000  -0.0000  -0.0000  -0.0000  -0.0000  -0.0000  -0.0000  -0.0000
    -0.0000  -0.0000  -0.0000  -0.0000  -0.0000  -0.0000  -0.0000  -0.0000
    -0.0000  -0.0000  -0.0000  -0.0000  -0.0000  -0.0000  -0.0000  -0.0000
    -0.0000  -0.0000  -0.0000  -0.0000  -0.0000  -0.0000  -0.0000  -0.0000
    -0.0000  -0.0000  -0.0000  -0.0000  -0.0000  -0.0000  -0.0000  -0.0000
    -0.0000  -0.0000  -0.0000  -0.0000  -0.0000  -0.0000  -0.0000  -0.0000
    -0.0000  -0.0000

          k = 0.0000 0.2222 0.0000 (  1324 PWs)   bands (ev):

   -72.5775 -69.3621 -39.3078 -38.6398 -38.1288 -35.7838 -35.1876 -34.9635
     8.2416   8.3289  11.4420  11.9684  12.5817  12.9955  13.0294  13.6163
    13.6728  13.9299  14.1039  14.2624  14.5736  14.7909  14.8547  15.2242
    15.2420  15.3065  15.5115  16.4845  17.4772  17.5432  20.9896  21.6891
    24.1053  24.7084  25.6756  26.4398  32.4724  32.7619  35.0178  35.3477
    36.0353  36.2828  37.0718  37.4304  42.0589  42.0911  44.3535  44.3948
    44.4359  44.6281  45.9672  45.9881  46.3060  46.3383  48.1823  48.8051
    51.7431  51.7692  52.7786  53.2909  54.4345  54.6282  55.5625  55.6282
    55.8195  55.8535  58.1245  58.7654  60.6490  61.2136  61.2679  61.4619
    61.6471  62.0359  66.5559  67.0553  68.2786  68.5793  68.9725  69.1547
    73.3232  73.7029  73.7603  73.7675  75.1351  75.3294  78.5604  78.8478
    79.6793  79.8246  80.2041  80.4853  80.5416  80.7170  80.7719  81.3414
    81.6282  82.2770

     occupation numbers 
     1.0000   1.0000   1.0000   1.0000   1.0000   1.0000   1.0000   1.0000
     1.0000   1.0000   1.0000   1.0000   1.0000   1.0000   1.0000   1.0000
     1.0000   1.0000   1.0000   1.0000   1.0000   1.0000   1.0000   1.0000
     1.0000   1.0000   1.0000  -0.0000  -0.0000  -0.0000  -0.0000  -0.0000
    -0.0000  -0.0000  -0.0000  -0.0000  -0.0000  -0.0000  -0.0000  -0.0000
    -0.0000  -0.0000  -0.0000  -0.0000  -0.0000  -0.0000  -0.0000  -0.0000
    -0.0000  -0.0000  -0.0000  -0.0000  -0.0000  -0.0000  -0.0000  -0.0000
    -0.0000  -0.0000  -0.0000  -0.0000  -0.0000  -0.0000  -0.0000  -0.0000
    -0.0000  -0.0000  -0.0000  -0.0000  -0.0000  -0.0000  -0.0000  -0.0000
    -0.0000  -0.0000  -0.0000  -0.0000  -0.0000  -0.0000  -0.0000  -0.0000
    -0.0000  -0.0000  -0.0000  -0.0000  -0.0000  -0.0000  -0.0000  -0.0000
    -0.0000  -0.0000  -0.0000  -0.0000  -0.0000  -0.0000  -0.0000  -0.0000
    -0.0000  -0.0000

          k = 0.0000 0.2222 0.1000 (  1307 PWs)   bands (ev):

   -72.5774 -69.3620 -39.3077 -38.6396 -38.1287 -35.7838 -35.1874 -34.9635
     8.4680   8.5622  11.4833  12.0276  12.5655  13.0438  13.0592  13.5987
    13.6386  13.7816  14.0725  14.3741  14.5220  14.6409  14.8340  15.2241
    15.2326  15.2907  15.3656  16.4649  17.3261  17.6798  19.4797  20.4442
    24.6625  25.2065  27.3707  28.0247  32.8145  32.8445  33.1118  33.2527
    37.1414  37.4453  38.4016  38.4837  40.9545  41.1537  42.5416  42.9169
    45.7461  45.8489  46.2004  46.4465  46.4684  46.6984  48.8324  48.9660
    50.0449  50.6187  52.3918  52.9288  53.4756  53.7211  54.5145  54.5935
    57.1760  57.7105  58.3496  58.4255  61.9475  62.0795  62.3115  62.5023
    63.5992  63.9584  64.3837  64.7535  66.7303  67.2385  69.6563  69.8618
    73.2684  73.4980  74.2371  74.5127  74.5398  74.9883  76.2087  76.2638
    79.1693  79.5119  79.9867  80.4212  81.0739  81.4390  81.6671  82.1105
    82.5939  83.0973

     occupation numbers 
     1.0000   1.0000   1.0000   1.0000   1.0000   1.0000   1.0000   1.0000
     1.0000   1.0000   1.0000   1.0000   1.0000   1.0000   1.0000   1.0000
     1.0000   1.0000   1.0000   1.0000   1.0000   1.0000   1.0000   1.0000
     1.0000   1.0000   1.0000  -0.0000  -0.0000  -0.0000  -0.0000  -0.0000
    -0.0000  -0.0000  -0.0000  -0.0000  -0.0000  -0.0000  -0.0000  -0.0000
    -0.0000  -0.0000  -0.0000  -0.0000  -0.0000  -0.0000  -0.0000  -0.0000
    -0.0000  -0.0000  -0.0000  -0.0000  -0.0000  -0.0000  -0.0000  -0.0000
    -0.0000  -0.0000  -0.0000  -0.0000  -0.0000  -0.0000  -0.0000  -0.0000
    -0.0000  -0.0000  -0.0000  -0.0000  -0.0000  -0.0000  -0.0000  -0.0000
    -0.0000  -0.0000  -0.0000  -0.0000  -0.0000  -0.0000  -0.0000  -0.0000
    -0.0000  -0.0000  -0.0000  -0.0000  -0.0000  -0.0000  -0.0000  -0.0000
    -0.0000  -0.0000  -0.0000  -0.0000  -0.0000  -0.0000  -0.0000  -0.0000
    -0.0000  -0.0000

          k = 0.0000 0.2222 0.2000 (  1304 PWs)   bands (ev):

   -72.5773 -69.3619 -39.3084 -38.6398 -38.1291 -35.7846 -35.1875 -34.9642
     9.1107   9.2341  11.4443  12.2382  12.2860  13.0266  13.2690  13.4343
    13.5617  13.6301  13.9972  14.2691  14.4815  14.7027  14.8293  14.8293
    15.1911  15.1978  15.3690  16.4794  17.2369  17.3596  17.7556  18.7203
    25.5923  26.1446  30.5311  30.7651  30.9962  31.2691  33.8103  34.1226
    37.4226  37.6665  38.7146  38.8021  39.9099  40.3428  42.0789  42.4744
    44.5970  44.8011  46.4772  46.8185  47.2230  47.4223  47.9418  48.0357
    51.3238  51.6494  51.7797  51.9467  52.0281  52.1618  53.3955  53.9067
    57.9603  58.3234  58.5184  58.8782  61.6938  61.7986  64.6882  65.0367
    65.2669  65.5226  65.7741  65.7841  67.4441  67.8260  68.2400  68.6673
    69.8944  70.2235  72.1334  72.1879  72.5717  73.1736  77.8026  78.2895
    78.7683  79.1946  80.6194  80.9037  81.0732  81.4212  81.8816  82.2046
    83.3183  83.6901

     occupation numbers 
     1.0000   1.0000   1.0000   1.0000   1.0000   1.0000   1.0000   1.0000
     1.0000   1.0000   1.0000   1.0000   1.0000   1.0000   1.0000   1.0000
     1.0000   1.0000   1.0000   1.0000   1.0000   1.0000   1.0000   1.0000
     1.0000   1.0000   1.0000  -0.0000  -0.0000  -0.0000  -0.0000  -0.0000
    -0.0000  -0.0000  -0.0000  -0.0000  -0.0000  -0.0000  -0.0000  -0.0000
    -0.0000  -0.0000  -0.0000  -0.0000  -0.0000  -0.0000  -0.0000  -0.0000
    -0.0000  -0.0000  -0.0000  -0.0000  -0.0000  -0.0000  -0.0000  -0.0000
    -0.0000  -0.0000  -0.0000  -0.0000  -0.0000  -0.0000  -0.0000  -0.0000
    -0.0000  -0.0000  -0.0000  -0.0000  -0.0000  -0.0000  -0.0000  -0.0000
    -0.0000  -0.0000  -0.0000  -0.0000  -0.0000  -0.0000  -0.0000  -0.0000
    -0.0000  -0.0000  -0.0000  -0.0000  -0.0000  -0.0000  -0.0000  -0.0000
    -0.0000  -0.0000  -0.0000  -0.0000  -0.0000  -0.0000  -0.0000  -0.0000
    -0.0000  -0.0000

          k = 0.0000 0.2222 0.3000 (  1297 PWs)   bands (ev):

   -72.5772 -69.3618 -39.3088 -38.6398 -38.1295 -35.7851 -35.1875 -34.9648
    10.0337  10.2330  10.9657  11.4543  12.5828  12.8984  13.2224  13.4056
    13.4919  13.7319  13.9529  14.0678  14.4323  14.8017  14.8956  14.9916
    15.0789  15.1515  15.2452  15.7558  16.7550  17.2574  17.4812  17.7485
    26.8736  27.3819  28.6208  29.2274  34.3916  34.6243  35.3680  35.6573
    37.1737  37.1788  37.5055  37.9859  38.2547  38.5816  40.4552  40.8389
    45.6123  45.8211  47.1562  47.4256  48.3221  48.3409  48.4805  48.6493
    48.9861  49.1458  49.9178  50.2939  52.0273  52.3188  54.6423  54.9195
    57.0940  57.5475  60.6241  61.0136  61.0763  61.4595  64.0458  64.3374
    65.1935  65.2332  67.4024  67.7534  68.4509  68.5090  68.5804  69.0560
    70.9253  71.1993  71.3078  71.8493  72.4764  72.9364  73.4419  73.9671
    75.7816  76.0621  77.8925  78.2287  83.6021  83.9201  85.8281  86.1308
    87.1629  87.5813

     occupation numbers 
     1.0000   1.0000   1.0000   1.0000   1.0000   1.0000   1.0000   1.0000
     1.0000   1.0000   1.0000   1.0000   1.0000   1.0000   1.0000   1.0000
     1.0000   1.0000   1.0000   1.0000   1.0000   1.0000   1.0000   1.0000
     1.0000   1.0000   1.0000   1.0245  -0.0000  -0.0000  -0.0000  -0.0000
    -0.0000  -0.0000  -0.0000  -0.0000  -0.0000  -0.0000  -0.0000  -0.0000
    -0.0000  -0.0000  -0.0000  -0.0000  -0.0000  -0.0000  -0.0000  -0.0000
    -0.0000  -0.0000  -0.0000  -0.0000  -0.0000  -0.0000  -0.0000  -0.0000
    -0.0000  -0.0000  -0.0000  -0.0000  -0.0000  -0.0000  -0.0000  -0.0000
    -0.0000  -0.0000  -0.0000  -0.0000  -0.0000  -0.0000  -0.0000  -0.0000
    -0.0000  -0.0000  -0.0000  -0.0000  -0.0000  -0.0000  -0.0000  -0.0000
    -0.0000  -0.0000  -0.0000  -0.0000  -0.0000  -0.0000  -0.0000  -0.0000
    -0.0000  -0.0000  -0.0000  -0.0000  -0.0000  -0.0000  -0.0000  -0.0000
    -0.0000  -0.0000

          k = 0.0000 0.3333 0.0000 (  1304 PWs)   bands (ev):

   -72.5686 -69.3521 -39.3338 -38.6358 -38.1702 -35.8177 -35.1816 -35.0049
     9.6065   9.7397  11.9821  12.2613  12.7114  13.1062  13.2080  13.2566
    13.5005  13.7093  13.9645  14.0577  14.4369  14.8280  14.9395  15.0547
    15.0615  15.1762  15.1966  16.9245  17.0956  17.3543  20.7878  21.6732
    23.2831  23.9781  26.2734  26.9268  31.7940  32.2881  32.6206  32.9978
    34.5472  34.8982  37.5900  37.8279  42.0723  42.1168  43.3242  43.6296
    43.6616  43.6765  46.6881  46.9885  47.6628  48.2293  51.7150  51.8311
    51.9676  51.9819  52.0016  52.1201  53.0147  53.3716  55.3001  55.3040
    56.9391  57.5789  58.2987  58.6913  59.4303  59.7093  62.2439  62.8663
    65.1418  65.3396  65.8176  66.0791  66.0817  66.3380  72.1153  72.6581
    73.2132  73.5210  75.3323  75.6593  77.0819  77.2988  79.5264  79.5959
    81.3224  81.9593  83.2915  83.3557  83.5522  83.7849  83.8921  84.0717
    84.1550  84.5433

     occupation numbers 
     1.0000   1.0000   1.0000   1.0000   1.0000   1.0000   1.0000   1.0000
     1.0000   1.0000   1.0000   1.0000   1.0000   1.0000   1.0000   1.0000
     1.0000   1.0000   1.0000   1.0000   1.0000   1.0000   1.0000   1.0000
     1.0000   1.0000   1.0000  -0.0000  -0.0000  -0.0000  -0.0000  -0.0000
    -0.0000  -0.0000  -0.0000  -0.0000  -0.0000  -0.0000  -0.0000  -0.0000
    -0.0000  -0.0000  -0.0000  -0.0000  -0.0000  -0.0000  -0.0000  -0.0000
    -0.0000  -0.0000  -0.0000  -0.0000  -0.0000  -0.0000  -0.0000  -0.0000
    -0.0000  -0.0000  -0.0000  -0.0000  -0.0000  -0.0000  -0.0000  -0.0000
    -0.0000  -0.0000  -0.0000  -0.0000  -0.0000  -0.0000  -0.0000  -0.0000
    -0.0000  -0.0000  -0.0000  -0.0000  -0.0000  -0.0000  -0.0000  -0.0000
    -0.0000  -0.0000  -0.0000  -0.0000  -0.0000  -0.0000  -0.0000  -0.0000
    -0.0000  -0.0000  -0.0000  -0.0000  -0.0000  -0.0000  -0.0000  -0.0000
    -0.0000  -0.0000

          k = 0.0000 0.3333 0.1000 (  1304 PWs)   bands (ev):

   -72.5685 -69.3521 -39.3340 -38.6358 -38.1704 -35.8179 -35.1816 -35.0052
     9.7491   9.9174  11.8943  12.2833  12.8694  12.9123  13.3299  13.3328
    13.5005  13.7063  13.7909  14.1707  14.4623  14.8368  14.8394  15.0515
    15.1187  15.1778  15.2295  16.8684  17.1052  17.4552  20.2344  21.1236
    22.3279  23.1781  28.3709  28.8640  29.4728  30.0542  34.8329  35.1794
    35.2659  35.5596  37.6404  37.8624  40.9159  40.9511  43.5411  43.8623
    44.0775  44.4943  44.7844  44.8822  50.5053  50.5562  50.5753  50.6048
    50.8328  50.9782  51.0785  51.1555  52.4861  52.7944  54.7530  55.0925
    58.4664  58.8314  59.0615  59.1536  60.6718  61.0447  61.3655  61.7991
    62.9114  62.9632  67.4428  67.7361  71.3327  71.5038  71.6462  72.0090
    72.7419  73.0215  73.4808  73.7777  75.0242  75.2647  79.0308  79.5352
    79.9275  80.3281  81.5677  81.5930  81.6832  81.8626  82.6280  83.1080
    83.6277  83.8630

     occupation numbers 
     1.0000   1.0000   1.0000   1.0000   1.0000   1.0000   1.0000   1.0000
     1.0000   1.0000   1.0000   1.0000   1.0000   1.0000   1.0000   1.0000
     1.0000   1.0000   1.0000   1.0000   1.0000   1.0000   1.0000   1.0000
     1.0000   1.0000   1.0000  -0.0000  -0.0000  -0.0000  -0.0000  -0.0000
    -0.0000  -0.0000  -0.0000  -0.0000  -0.0000  -0.0000  -0.0000  -0.0000
    -0.0000  -0.0000  -0.0000  -0.0000  -0.0000  -0.0000  -0.0000  -0.0000
    -0.0000  -0.0000  -0.0000  -0.0000  -0.0000  -0.0000  -0.0000  -0.0000
    -0.0000  -0.0000  -0.0000  -0.0000  -0.0000  -0.0000  -0.0000  -0.0000
    -0.0000  -0.0000  -0.0000  -0.0000  -0.0000  -0.0000  -0.0000  -0.0000
    -0.0000  -0.0000  -0.0000  -0.0000  -0.0000  -0.0000  -0.0000  -0.0000
    -0.0000  -0.0000  -0.0000  -0.0000  -0.0000  -0.0000  -0.0000  -0.0000
    -0.0000  -0.0000  -0.0000  -0.0000  -0.0000  -0.0000  -0.0000  -0.0000
    -0.0000  -0.0000

          k = 0.0000 0.3333 0.2000 (  1308 PWs)   bands (ev):

   -72.5685 -69.3520 -39.3345 -38.6360 -38.1709 -35.8185 -35.1818 -35.0060
    10.1187  10.4078  11.5502  12.4521  12.5685  13.2723  13.4563  13.5059
    13.5164  13.6652  13.8682  13.9846  14.7112  14.8028  14.8253  14.9257
    14.9954  15.2949  15.3222  16.7770  17.2335  17.5768  18.2741  19.3942
    22.6060  23.4692  27.1287  27.7663  31.8444  32.2316  35.6799  36.0114
    37.8589  37.8772  37.9976  38.0712  39.9441  40.2965  41.3732  41.8236
    44.1978  44.4922  44.9944  45.2727  48.0354  48.1082  48.5944  48.6075
    48.8021  48.9743  52.6180  52.9631  54.2157  54.6347  55.3755  55.7751
    55.8703  56.2259  59.9006  60.1709  61.5014  62.0461  62.7740  63.0669
    67.1477  67.3648  67.4305  67.4887  70.8923  70.9050  71.0602  71.2988
    72.9752  73.3488  73.6326  74.1422  74.5442  75.0868  76.9079  77.1284
    77.4608  77.9601  78.8221  78.9359  79.4939  79.5585  80.4339  80.7167
    85.1619  85.4899

     occupation numbers 
     1.0000   1.0000   1.0000   1.0000   1.0000   1.0000   1.0000   1.0000
     1.0000   1.0000   1.0000   1.0000   1.0000   1.0000   1.0000   1.0000
     1.0000   1.0000   1.0000   1.0000   1.0000   1.0000   1.0000   1.0000
     1.0000   1.0000   1.0000  -0.0000  -0.0000  -0.0000  -0.0000  -0.0000
    -0.0000  -0.0000  -0.0000  -0.0000  -0.0000  -0.0000  -0.0000  -0.0000
    -0.0000  -0.0000  -0.0000  -0.0000  -0.0000  -0.0000  -0.0000  -0.0000
    -0.0000  -0.0000  -0.0000  -0.0000  -0.0000  -0.0000  -0.0000  -0.0000
    -0.0000  -0.0000  -0.0000  -0.0000  -0.0000  -0.0000  -0.0000  -0.0000
    -0.0000  -0.0000  -0.0000  -0.0000  -0.0000  -0.0000  -0.0000  -0.0000
    -0.0000  -0.0000  -0.0000  -0.0000  -0.0000  -0.0000  -0.0000  -0.0000
    -0.0000  -0.0000  -0.0000  -0.0000  -0.0000  -0.0000  -0.0000  -0.0000
    -0.0000  -0.0000  -0.0000  -0.0000  -0.0000  -0.0000  -0.0000  -0.0000
    -0.0000  -0.0000

          k = 0.0000 0.3333 0.3000 (  1306 PWs)   bands (ev):

   -72.5684 -69.3520 -39.3350 -38.6358 -38.1713 -35.8190 -35.1815 -35.0066
    10.5663  11.0765  11.1327  11.8463  12.9555  13.3455  13.4708  13.6349
    13.6488  13.7145  14.0565  14.1789  14.6383  14.6717  14.8464  15.1174
    15.1308  15.3083  15.3641  16.3507  16.9331  17.4243  17.5851  17.8904
    23.6396  24.4105  25.2468  26.0323  35.3251  35.4439  37.0284  37.2812
    37.3745  37.5307  38.6356  38.9128  39.0809  39.6104  40.8316  41.2683
    43.2727  43.5320  45.2473  45.4557  46.0271  46.2585  46.8264  47.2877
    48.8715  49.0784  51.1209  51.4602  54.6246  55.0154  55.2979  55.7223
    58.1338  58.5323  61.3734  61.5687  62.1777  62.6055  63.8458  64.0134
    65.7243  66.1684  69.1497  69.4533  69.7540  70.2002  71.3619  71.3940
    71.8004  72.1965  74.1733  74.6080  74.7804  74.7983  75.5510  75.5980
    75.9532  76.1585  77.5162  77.6526  78.9111  79.1581  80.5706  80.9306
    85.3377  85.5922

     occupation numbers 
     1.0000   1.0000   1.0000   1.0000   1.0000   1.0000   1.0000   1.0000
     1.0000   1.0000   1.0000   1.0000   1.0000   1.0000   1.0000   1.0000
     1.0000   1.0000   1.0000   1.0000   1.0000   1.0000   1.0000   1.0000
     1.0000   1.0000   1.0000  -0.0003  -0.0000  -0.0000  -0.0000  -0.0000
    -0.0000  -0.0000  -0.0000  -0.0000  -0.0000  -0.0000  -0.0000  -0.0000
    -0.0000  -0.0000  -0.0000  -0.0000  -0.0000  -0.0000  -0.0000  -0.0000
    -0.0000  -0.0000  -0.0000  -0.0000  -0.0000  -0.0000  -0.0000  -0.0000
    -0.0000  -0.0000  -0.0000  -0.0000  -0.0000  -0.0000  -0.0000  -0.0000
    -0.0000  -0.0000  -0.0000  -0.0000  -0.0000  -0.0000  -0.0000  -0.0000
    -0.0000  -0.0000  -0.0000  -0.0000  -0.0000  -0.0000  -0.0000  -0.0000
    -0.0000  -0.0000  -0.0000  -0.0000  -0.0000  -0.0000  -0.0000  -0.0000
    -0.0000  -0.0000  -0.0000  -0.0000  -0.0000  -0.0000  -0.0000  -0.0000
    -0.0000  -0.0000

          k = 0.0000 0.4444 0.0000 (  1312 PWs)   bands (ev):

   -72.5628 -69.3457 -39.3526 -38.6337 -38.1959 -35.8429 -35.1780 -35.0292
    11.0693  11.3515  12.0398  12.4800  12.5602  12.7038  12.9334  13.1876
    13.4584  13.6470  13.8980  14.2147  14.3485  14.4876  14.7248  14.7958
    15.0181  15.2155  16.1952  16.8438  17.2350  17.3835  18.0798  19.7402
    25.8690  26.5217  27.5592  27.9606  28.7157  29.3080  29.8459  30.4228
    37.1409  37.5265  38.4522  38.5728  40.0560  40.1234  40.2072  40.5843
    45.8981  45.9098  47.7402  47.8955  48.7051  48.7161  49.6349  50.0281
    50.0738  50.5834  53.5059  53.9016  53.9974  54.1724  55.6397  56.1141
    58.6719  58.7652  58.9300  59.3983  61.2565  61.4901  62.2481  62.4968
    63.7154  64.1817  65.7756  66.0720  67.6886  68.1977  71.8672  71.8863
    73.6613  74.0503  76.8589  77.6251  78.4949  78.6903  78.8578  78.8686
    81.2681  81.6293  81.8673  82.1491  83.5028  83.5312  83.9342  84.4857
    84.7234  85.1956

     occupation numbers 
     1.0000   1.0000   1.0000   1.0000   1.0000   1.0000   1.0000   1.0000
     1.0000   1.0000   1.0000   1.0000   1.0000   1.0000   1.0000   1.0000
     1.0000   1.0000   1.0000   1.0000   1.0000   1.0000   1.0000   1.0000
     1.0000   1.0000  -0.0202  -0.0000  -0.0000  -0.0000  -0.0000  -0.0000
    -0.0000  -0.0000  -0.0000  -0.0000  -0.0000  -0.0000  -0.0000  -0.0000
    -0.0000  -0.0000  -0.0000  -0.0000  -0.0000  -0.0000  -0.0000  -0.0000
    -0.0000  -0.0000  -0.0000  -0.0000  -0.0000  -0.0000  -0.0000  -0.0000
    -0.0000  -0.0000  -0.0000  -0.0000  -0.0000  -0.0000  -0.0000  -0.0000
    -0.0000  -0.0000  -0.0000  -0.0000  -0.0000  -0.0000  -0.0000  -0.0000
    -0.0000  -0.0000  -0.0000  -0.0000  -0.0000  -0.0000  -0.0000  -0.0000
    -0.0000  -0.0000  -0.0000  -0.0000  -0.0000  -0.0000  -0.0000  -0.0000
    -0.0000  -0.0000  -0.0000  -0.0000  -0.0000  -0.0000  -0.0000  -0.0000
    -0.0000  -0.0000

          k = 0.0000 0.4444 0.1000 (  1307 PWs)   bands (ev):

   -72.5628 -69.3456 -39.3526 -38.6335 -38.1960 -35.8430 -35.1779 -35.0294
    10.9825  11.3909  11.7017  12.5014  12.6380  12.9318  13.1953  13.2680
    13.6544  13.7247  13.7561  13.9532  14.6382  14.6629  14.7248  14.9203
    15.0875  15.1097  16.1058  16.9700  17.3089  17.3194  17.9906  19.5827
    23.9258  24.6931  26.4449  27.0771  30.0649  30.4931  32.4516  32.8921
    37.3636  37.7326  38.4284  38.5343  39.7803  39.8398  40.3674  40.7605
    45.7882  45.8335  45.8585  46.1594  47.9763  48.0892  48.1439  48.5544
    52.3826  52.7647  53.1886  53.3776  55.3542  55.8197  55.9906  56.0808
    56.5507  56.7887  58.3016  58.6858  59.5807  60.0505  64.9650  65.3218
    65.4020  65.5467  67.7890  68.1588  68.4797  68.7788  72.6905  73.0435
    73.2273  73.3185  73.9486  74.3496  76.4037  76.9163  78.6582  79.0630
    79.4322  79.4698  80.2527  80.2715  81.7006  82.0246  83.2178  83.7453
    86.8755  87.0315

     occupation numbers 
     1.0000   1.0000   1.0000   1.0000   1.0000   1.0000   1.0000   1.0000
     1.0000   1.0000   1.0000   1.0000   1.0000   1.0000   1.0000   1.0000
     1.0000   1.0000   1.0000   1.0000   1.0000   1.0000   1.0000   1.0000
     1.0000   1.0000  -0.0256  -0.0000  -0.0000  -0.0000  -0.0000  -0.0000
    -0.0000  -0.0000  -0.0000  -0.0000  -0.0000  -0.0000  -0.0000  -0.0000
    -0.0000  -0.0000  -0.0000  -0.0000  -0.0000  -0.0000  -0.0000  -0.0000
    -0.0000  -0.0000  -0.0000  -0.0000  -0.0000  -0.0000  -0.0000  -0.0000
    -0.0000  -0.0000  -0.0000  -0.0000  -0.0000  -0.0000  -0.0000  -0.0000
    -0.0000  -0.0000  -0.0000  -0.0000  -0.0000  -0.0000  -0.0000  -0.0000
    -0.0000  -0.0000  -0.0000  -0.0000  -0.0000  -0.0000  -0.0000  -0.0000
    -0.0000  -0.0000  -0.0000  -0.0000  -0.0000  -0.0000  -0.0000  -0.0000
    -0.0000  -0.0000  -0.0000  -0.0000  -0.0000  -0.0000  -0.0000  -0.0000
    -0.0000  -0.0000

          k = 0.0000 0.4444 0.2000 (  1307 PWs)   bands (ev):

   -72.5627 -69.3456 -39.3531 -38.6334 -38.1964 -35.8434 -35.1777 -35.0301
    10.8248  11.3218  11.4808  12.1531  12.8736  13.2990  13.4406  13.6385
    13.7922  13.8714  13.9414  14.3749  14.5856  14.9070  14.9807  15.0097
    15.1815  15.2584  15.8185  17.0717  17.2248  17.4762  17.5288  18.9617
    22.2268  23.2230  24.2572  25.0759  33.4540  33.7060  35.6695  35.8828
    38.0164  38.3136  38.4706  38.5582  39.3060  39.4295  40.8285  41.2212
    43.6420  44.0536  45.0095  45.0801  45.9654  46.3608  46.4005  46.7588
    50.0816  50.3325  52.7377  53.1010  55.8821  56.2105  58.0657  58.2699
    58.6261  59.1538  59.2589  59.4204  60.5798  61.0683  63.6299  63.8881
    67.2535  67.5922  69.2194  69.5386  70.1132  70.3275  71.7181  71.7265
    71.8614  72.2454  74.1323  74.4125  75.7393  75.8166  75.9006  76.0797
    77.2612  77.6042  78.8688  79.3376  82.1276  82.6111  82.6530  82.7192
    85.6505  85.6923

     occupation numbers 
     1.0000   1.0000   1.0000   1.0000   1.0000   1.0000   1.0000   1.0000
     1.0000   1.0000   1.0000   1.0000   1.0000   1.0000   1.0000   1.0000
     1.0000   1.0000   1.0000   1.0000   1.0000   1.0000   1.0000   1.0000
     1.0000   1.0000   1.0330  -0.0000  -0.0000  -0.0000  -0.0000  -0.0000
    -0.0000  -0.0000  -0.0000  -0.0000  -0.0000  -0.0000  -0.0000  -0.0000
    -0.0000  -0.0000  -0.0000  -0.0000  -0.0000  -0.0000  -0.0000  -0.0000
    -0.0000  -0.0000  -0.0000  -0.0000  -0.0000  -0.0000  -0.0000  -0.0000
    -0.0000  -0.0000  -0.0000  -0.0000  -0.0000  -0.0000  -0.0000  -0.0000
    -0.0000  -0.0000  -0.0000  -0.0000  -0.0000  -0.0000  -0.0000  -0.0000
    -0.0000  -0.0000  -0.0000  -0.0000  -0.0000  -0.0000  -0.0000  -0.0000
    -0.0000  -0.0000  -0.0000  -0.0000  -0.0000  -0.0000  -0.0000  -0.0000
    -0.0000  -0.0000  -0.0000  -0.0000  -0.0000  -0.0000  -0.0000  -0.0000
    -0.0000  -0.0000

          k = 0.0000 0.4444 0.3000 (  1298 PWs)   bands (ev):

   -72.5626 -69.3455 -39.3533 -38.6331 -38.1966 -35.8435 -35.1773 -35.0305
    10.7233  11.1062  11.5986  11.8624  13.0783  13.3020  13.3475  13.4621
    14.2137  14.4711  14.6039  14.7662  14.9888  15.0484  15.2091  15.2357
    15.3234  15.3263  15.5324  16.3973  16.7613  17.4217  17.5884  18.0099
    21.8108  22.7405  22.8793  23.7771  36.4049  36.4837  37.2221  37.4537
    38.9757  39.0014  39.1783  39.3069  40.0907  40.5388  40.7663  41.3247
    42.7927  42.8753  42.9315  43.2208  43.9960  44.1092  44.5565  44.5910
    48.7769  49.0297  50.2387  50.6723  59.6637  59.7910  59.9647  60.2377
    60.3456  60.5797  61.9063  62.5127  62.8289  63.1139  63.1403  63.2200
    65.1702  65.4736  67.0691  67.2642  67.3284  67.5428  67.8138  67.9515
    72.4438  72.4454  73.9681  74.2455  77.7574  77.8136  78.6521  79.0515
    79.6392  80.1366  80.1491  80.4541  80.8364  81.2860  82.2911  82.3493
    85.6578  85.7807

     occupation numbers 
     1.0000   1.0000   1.0000   1.0000   1.0000   1.0000   1.0000   1.0000
     1.0000   1.0000   1.0000   1.0000   1.0000   1.0000   1.0000   1.0000
     1.0000   1.0000   1.0000   1.0000   1.0000   1.0000   1.0000   1.0000
     1.0000   1.0000   1.0000  -0.0000  -0.0000  -0.0000  -0.0000  -0.0000
    -0.0000  -0.0000  -0.0000  -0.0000  -0.0000  -0.0000  -0.0000  -0.0000
    -0.0000  -0.0000  -0.0000  -0.0000  -0.0000  -0.0000  -0.0000  -0.0000
    -0.0000  -0.0000  -0.0000  -0.0000  -0.0000  -0.0000  -0.0000  -0.0000
    -0.0000  -0.0000  -0.0000  -0.0000  -0.0000  -0.0000  -0.0000  -0.0000
    -0.0000  -0.0000  -0.0000  -0.0000  -0.0000  -0.0000  -0.0000  -0.0000
    -0.0000  -0.0000  -0.0000  -0.0000  -0.0000  -0.0000  -0.0000  -0.0000
    -0.0000  -0.0000  -0.0000  -0.0000  -0.0000  -0.0000  -0.0000  -0.0000
    -0.0000  -0.0000  -0.0000  -0.0000  -0.0000  -0.0000  -0.0000  -0.0000
    -0.0000  -0.0000

          k = 0.1111 0.1111 0.0000 (  1315 PWs)   bands (ev):

   -72.5822 -69.3673 -39.2849 -38.6681 -38.0866 -35.7568 -35.2226 -34.9185
     7.6383   7.7175  11.1617  11.7851  12.2739  12.8563  13.1564  13.5608
    13.6196  14.2517  14.3524  14.4004  14.5356  14.6290  14.9968  15.2033
    15.3353  15.5224  16.1399  16.3501  17.6021  17.7512  19.7890  20.4433
    25.1578  26.0974  28.1073  28.4599  29.0129  29.3359  37.8114  37.8364
    38.6139  38.8721  39.5262  39.7049  39.9465  40.1205  40.5383  40.5533
    42.1090  42.5187  47.8583  48.0926  48.2848  48.5493  48.7057  48.8084
    48.8898  48.9553  52.0236  52.1768  54.4917  54.6404  56.2951  56.8629
    56.8732  57.1601  57.3970  57.7162  60.5868  61.0436  62.6878  62.8129
    63.6177  64.0539  65.4656  65.5404  66.7934  66.9414  70.2456  70.8116
    71.3788  71.4913  71.6704  71.7471  74.4273  74.4692  75.2621  75.6430
    76.8826  77.3638  77.5194  77.9727  79.5279  80.0701  80.9405  81.2560
    81.4090  81.8218

     occupation numbers 
     1.0000   1.0000   1.0000   1.0000   1.0000   1.0000   1.0000   1.0000
     1.0000   1.0000   1.0000   1.0000   1.0000   1.0000   1.0000   1.0000
     1.0000   1.0000   1.0000   1.0000   1.0000   1.0000   1.0000   1.0000
     1.0000   1.0000  -0.0353  -0.0003  -0.0000  -0.0000  -0.0000  -0.0000
    -0.0000  -0.0000  -0.0000  -0.0000  -0.0000  -0.0000  -0.0000  -0.0000
    -0.0000  -0.0000  -0.0000  -0.0000  -0.0000  -0.0000  -0.0000  -0.0000
    -0.0000  -0.0000  -0.0000  -0.0000  -0.0000  -0.0000  -0.0000  -0.0000
    -0.0000  -0.0000  -0.0000  -0.0000  -0.0000  -0.0000  -0.0000  -0.0000
    -0.0000  -0.0000  -0.0000  -0.0000  -0.0000  -0.0000  -0.0000  -0.0000
    -0.0000  -0.0000  -0.0000  -0.0000  -0.0000  -0.0000  -0.0000  -0.0000
    -0.0000  -0.0000  -0.0000  -0.0000  -0.0000  -0.0000  -0.0000  -0.0000
    -0.0000  -0.0000  -0.0000  -0.0000  -0.0000  -0.0000  -0.0000  -0.0000
    -0.0000  -0.0000

          k = 0.1111 0.1111 0.1000 (  1314 PWs)   bands (ev):

   -72.5821 -69.3673 -39.2852 -38.6682 -38.0869 -35.7573 -35.2227 -34.9189
     7.8860   7.9670  11.2129  11.8560  12.2655  12.9264  13.1368  13.5721
    13.6351  14.1412  14.2321  14.3724  14.5703  14.6038  15.0028  15.1826
    15.2976  15.3882  15.7608  16.4586  17.4558  17.7474  18.5478  19.5498
    26.8655  27.6050  28.4403  28.8105  29.3529  29.6903  36.2825  36.4954
    37.3712  37.6458  38.7740  39.0459  41.2908  41.4020  42.2132  42.5955
    42.8297  42.9932  45.9898  46.1290  46.3864  46.7188  48.6796  49.2744
    50.7058  50.7760  53.1374  53.4988  53.6136  53.7502  54.2634  54.2704
    57.7534  58.3534  60.1284  60.5190  61.3552  61.6617  61.7706  61.7957
    62.7507  63.1112  64.5607  65.0179  66.4662  66.6911  69.0265  69.5155
    70.4533  70.6038  72.7049  72.7662  73.6625  74.2767  74.8655  75.3341
    77.9765  78.3066  78.3903  78.5265  79.7868  80.0408  81.9686  82.6068
    83.4824  83.9500

     occupation numbers 
     1.0000   1.0000   1.0000   1.0000   1.0000   1.0000   1.0000   1.0000
     1.0000   1.0000   1.0000   1.0000   1.0000   1.0000   1.0000   1.0000
     1.0000   1.0000   1.0000   1.0000   1.0000   1.0000   1.0000   1.0000
     1.0000   1.0000   1.0262  -0.0000  -0.0000  -0.0000  -0.0000  -0.0000
    -0.0000  -0.0000  -0.0000  -0.0000  -0.0000  -0.0000  -0.0000  -0.0000
    -0.0000  -0.0000  -0.0000  -0.0000  -0.0000  -0.0000  -0.0000  -0.0000
    -0.0000  -0.0000  -0.0000  -0.0000  -0.0000  -0.0000  -0.0000  -0.0000
    -0.0000  -0.0000  -0.0000  -0.0000  -0.0000  -0.0000  -0.0000  -0.0000
    -0.0000  -0.0000  -0.0000  -0.0000  -0.0000  -0.0000  -0.0000  -0.0000
    -0.0000  -0.0000  -0.0000  -0.0000  -0.0000  -0.0000  -0.0000  -0.0000
    -0.0000  -0.0000  -0.0000  -0.0000  -0.0000  -0.0000  -0.0000  -0.0000
    -0.0000  -0.0000  -0.0000  -0.0000  -0.0000  -0.0000  -0.0000  -0.0000
    -0.0000  -0.0000

          k = 0.1111 0.1111 0.2000 (  1315 PWs)   bands (ev):

   -72.5821 -69.3672 -39.2862 -38.6683 -38.0876 -35.7585 -35.2227 -34.9199
     8.5996   8.6900  11.2334  12.0229  12.0564  12.9899  13.1146  13.5652
    13.6539  13.7771  14.1171  14.3016  14.4808  14.7500  14.8999  14.9999
    15.0525  15.2058  15.3788  16.5179  16.7534  17.1142  17.6834  18.3716
    29.3549  29.6564  29.7830  30.1065  30.7980  31.2587  34.2823  34.6641
[...]
    11.3634  11.8864  11.9834  12.5742  12.5935  12.8399  13.0026  13.1806
    13.6599  13.8035  13.8487  13.9972  14.1606  14.4601  14.7571  14.9005
    14.9707  16.2187  16.4639  16.8258  17.1105  18.0875  18.4400  19.4195
    24.3750  25.0329  26.0680  26.7908  29.4118  29.7739  30.9386  31.4843
    36.4271  36.5455  36.8116  37.2959  38.4439  38.7896  40.8844  41.0866
    44.8154  45.0275  48.4078  48.4386  48.5957  48.8587  49.4182  49.6191
    51.3666  51.7113  54.6253  55.0981  55.9341  56.1478  56.4554  56.7121
    58.2533  58.6504  58.7318  58.9091  60.0028  60.4073  62.3638  62.8509
    66.2956  66.4565  68.0093  68.3177  69.7482  70.1391  73.2455  73.5507
    74.5897  74.7883  75.4487  75.7343  76.0293  76.4573  79.6725  79.7959
    80.7794  80.8941  80.9738  81.1639  82.9890  83.0361  83.2521  83.5319
    85.7473  85.8016

     occupation numbers 
     1.0000   1.0000   1.0000   1.0000   1.0000   1.0000   1.0000   1.0000
     1.0000   1.0000   1.0000   1.0000   1.0000   1.0000   1.0000   1.0000
     1.0000   1.0000   1.0000   1.0000   1.0000   1.0000   1.0000   1.0000
     1.0000  -0.0132  -0.0000  -0.0000  -0.0000  -0.0000  -0.0000  -0.0000
    -0.0000  -0.0000  -0.0000  -0.0000  -0.0000  -0.0000  -0.0000  -0.0000
    -0.0000  -0.0000  -0.0000  -0.0000  -0.0000  -0.0000  -0.0000  -0.0000
    -0.0000  -0.0000  -0.0000  -0.0000  -0.0000  -0.0000  -0.0000  -0.0000
    -0.0000  -0.0000  -0.0000  -0.0000  -0.0000  -0.0000  -0.0000  -0.0000
    -0.0000  -0.0000  -0.0000  -0.0000  -0.0000  -0.0000  -0.0000  -0.0000
    -0.0000  -0.0000  -0.0000  -0.0000  -0.0000  -0.0000  -0.0000  -0.0000
    -0.0000  -0.0000  -0.0000  -0.0000  -0.0000  -0.0000  -0.0000  -0.0000
    -0.0000  -0.0000  -0.0000  -0.0000  -0.0000  -0.0000  -0.0000  -0.0000
    -0.0000  -0.0000

          k = 0.4444 0.2222 0.0000 (  1316 PWs)   bands (ev):

   -72.5523 -69.3339 -39.2936 -38.8428 -38.1058 -35.7766 -35.4306 -34.9365
    11.2012  11.6901  11.8317  12.0147  12.2117  12.6220  13.1226  13.2965
    13.3951  13.5331  14.1127  14.6630  14.7635  14.8506  14.9299  15.1828
    16.3497  16.3932  16.4177  16.6806  17.2952  17.8520  18.7122  19.9872
    26.8749  27.4320  28.0215  28.4360  29.5659  29.7705  30.0763  30.2373
    30.2815  30.7130  32.2033  32.6505  39.2270  39.4730  41.4468  41.7742
    42.5028  42.7212  44.9090  45.4611  49.3748  49.6484  51.1205  51.3099
    56.0646  56.0880  58.4571  58.4729  59.1150  59.3472  59.7254  59.9820
    60.6916  60.8118  61.4136  61.7215  64.0610  64.2249  64.3114  64.5367
    65.9769  66.4797  67.3566  67.7844  68.8029  69.3517  69.6154  69.7965
    72.6552  72.8117  73.9460  74.2478  74.8128  75.1986  75.4537  75.4768
    76.1524  76.2910  76.9254  77.3046  80.4816  80.5762  80.7780  80.8683
    84.4788  84.6954

     occupation numbers 
     1.0000   1.0000   1.0000   1.0000   1.0000   1.0000   1.0000   1.0000
     1.0000   1.0000   1.0000   1.0000   1.0000   1.0000   1.0000   1.0000
     1.0000   1.0000   1.0000   1.0000   1.0000   1.0000   1.0000   1.0000
    -0.0003  -0.0000  -0.0000  -0.0000  -0.0000  -0.0000  -0.0000  -0.0000
    -0.0000  -0.0000  -0.0000  -0.0000  -0.0000  -0.0000  -0.0000  -0.0000
    -0.0000  -0.0000  -0.0000  -0.0000  -0.0000  -0.0000  -0.0000  -0.0000
    -0.0000  -0.0000  -0.0000  -0.0000  -0.0000  -0.0000  -0.0000  -0.0000
    -0.0000  -0.0000  -0.0000  -0.0000  -0.0000  -0.0000  -0.0000  -0.0000
    -0.0000  -0.0000  -0.0000  -0.0000  -0.0000  -0.0000  -0.0000  -0.0000
    -0.0000  -0.0000  -0.0000  -0.0000  -0.0000  -0.0000  -0.0000  -0.0000
    -0.0000  -0.0000  -0.0000  -0.0000  -0.0000  -0.0000  -0.0000  -0.0000
    -0.0000  -0.0000  -0.0000  -0.0000  -0.0000  -0.0000  -0.0000  -0.0000
    -0.0000  -0.0000

          k = 0.4444 0.2222-0.1000 (  1321 PWs)   bands (ev):

   -72.5523 -69.3339 -39.2941 -38.8428 -38.1061 -35.7771 -35.4306 -34.9369
    11.2612  11.7488  11.9469  12.0850  12.2693  12.6862  13.1443  13.3287
    13.4135  13.4857  14.1379  14.3218  14.4245  14.8997  15.2231  15.3089
    15.9757  16.3194  16.5554  16.7946  17.4378  18.0778  18.9022  20.1018
    24.6667  25.3055  27.2202  27.7925  29.6343  30.1005  30.9677  31.3495
    32.0139  32.4726  33.0818  33.5145  37.8957  38.1504  39.8492  40.2357
    44.5413  44.7522  46.8128  47.2707  49.6334  49.9361  51.1806  51.3669
    53.1045  53.2003  55.3176  55.4201  57.9711  58.1154  60.0326  60.4141
    60.5041  60.8028  62.7663  62.9453  65.3224  65.5951  66.1011  66.4147
    66.5724  66.8315  67.1337  67.5755  68.1013  68.3940  70.7990  70.9128
    71.0257  71.2036  71.7354  72.2973  73.9475  74.3240  76.6891  76.8726
    79.0443  79.3568  79.4341  79.5280  79.7239  80.1494  82.3270  82.7153
    85.3892  85.4472

     occupation numbers 
     1.0000   1.0000   1.0000   1.0000   1.0000   1.0000   1.0000   1.0000
     1.0000   1.0000   1.0000   1.0000   1.0000   1.0000   1.0000   1.0000
     1.0000   1.0000   1.0000   1.0000   1.0000   1.0000   1.0000   1.0000
     0.4591  -0.0008  -0.0000  -0.0000  -0.0000  -0.0000  -0.0000  -0.0000
    -0.0000  -0.0000  -0.0000  -0.0000  -0.0000  -0.0000  -0.0000  -0.0000
    -0.0000  -0.0000  -0.0000  -0.0000  -0.0000  -0.0000  -0.0000  -0.0000
    -0.0000  -0.0000  -0.0000  -0.0000  -0.0000  -0.0000  -0.0000  -0.0000
    -0.0000  -0.0000  -0.0000  -0.0000  -0.0000  -0.0000  -0.0000  -0.0000
    -0.0000  -0.0000  -0.0000  -0.0000  -0.0000  -0.0000  -0.0000  -0.0000
    -0.0000  -0.0000  -0.0000  -0.0000  -0.0000  -0.0000  -0.0000  -0.0000
    -0.0000  -0.0000  -0.0000  -0.0000  -0.0000  -0.0000  -0.0000  -0.0000
    -0.0000  -0.0000  -0.0000  -0.0000  -0.0000  -0.0000  -0.0000  -0.0000
    -0.0000  -0.0000

          k = 0.4444 0.2222-0.2000 (  1321 PWs)   bands (ev):

   -72.5522 -69.3338 -39.2948 -38.8426 -38.1067 -35.7779 -35.4303 -34.9378
    11.3612  11.8240  12.2057  12.2737  12.5441  12.7205  13.2604  13.2712
    13.4663  13.6084  13.9974  14.0784  14.1870  14.8859  15.2455  15.3788
    15.4599  16.2304  16.6297  17.1444  17.6615  18.5837  19.2531  20.2839
    22.6634  23.4973  24.9688  25.6727  30.2689  30.6900  32.5658  32.9117
    33.8957  34.1107  34.4767  35.0891  37.6280  37.8396  38.1776  38.5884
    47.4527  47.6570  48.9154  48.9515  49.5094  49.9060  50.3082  50.5527
    51.2569  51.4250  51.7340  52.1255  56.4660  56.5969  58.4229  58.8634
    60.3361  60.7472  62.4294  62.5659  63.9779  64.2429  64.3336  64.8167
    66.5923  66.8065  68.7301  68.9736  69.7459  70.1236  72.2179  72.3937
    72.8118  73.0586  73.0873  73.4093  75.8921  76.2427  76.5534  76.9590
    79.3730  79.4481  81.7612  81.9377  82.0720  82.1303  83.3149  83.6265
    84.4810  84.7654

     occupation numbers 
     1.0000   1.0000   1.0000   1.0000   1.0000   1.0000   1.0000   1.0000
     1.0000   1.0000   1.0000   1.0000   1.0000   1.0000   1.0000   1.0000
     1.0000   1.0000   1.0000   1.0000   1.0000   1.0000   1.0000   1.0000
     1.0000  -0.0103  -0.0000  -0.0000  -0.0000  -0.0000  -0.0000  -0.0000
    -0.0000  -0.0000  -0.0000  -0.0000  -0.0000  -0.0000  -0.0000  -0.0000
    -0.0000  -0.0000  -0.0000  -0.0000  -0.0000  -0.0000  -0.0000  -0.0000
    -0.0000  -0.0000  -0.0000  -0.0000  -0.0000  -0.0000  -0.0000  -0.0000
    -0.0000  -0.0000  -0.0000  -0.0000  -0.0000  -0.0000  -0.0000  -0.0000
    -0.0000  -0.0000  -0.0000  -0.0000  -0.0000  -0.0000  -0.0000  -0.0000
    -0.0000  -0.0000  -0.0000  -0.0000  -0.0000  -0.0000  -0.0000  -0.0000
    -0.0000  -0.0000  -0.0000  -0.0000  -0.0000  -0.0000  -0.0000  -0.0000
    -0.0000  -0.0000  -0.0000  -0.0000  -0.0000  -0.0000  -0.0000  -0.0000
    -0.0000  -0.0000

          k = 0.4444 0.2222-0.3000 (  1318 PWs)   bands (ev):

   -72.5522 -69.3338 -39.2952 -38.8425 -38.1070 -35.7784 -35.4301 -34.9383
    11.4120  11.8560  12.4304  12.4427  12.6217  12.8852  13.2227  13.4004
    13.5214  13.7596  13.9306  14.0108  14.2547  14.8319  14.9919  15.1386
    15.3263  16.2046  16.4452  17.6748  18.0218  18.9672  19.2400  19.9725
    22.1309  23.0524  23.2627  24.1569  31.1786  31.4793  32.4416  32.8700
    33.7917  33.9613  35.2288  35.9643  38.7357  38.8835  40.4261  40.6416
    44.7953  45.0626  46.4500  46.7036  50.1696  50.3330  50.9932  51.1195
    52.3254  52.5738  54.9427  55.4219  55.7161  55.8059  56.6271  57.0746
    57.6660  58.0297  59.6320  60.2017  61.9173  62.2022  63.1255  63.5143
    68.3685  68.6142  69.6774  69.9969  71.9892  72.2271  73.0730  73.2451
    73.4041  73.7503  74.9190  75.3696  78.3981  78.4951  78.5194  78.6991
    79.5348  79.9236  80.2996  80.6606  81.9654  82.2264  82.9474  83.0199
    84.4067  84.7564

     occupation numbers 
     1.0000   1.0000   1.0000   1.0000   1.0000   1.0000   1.0000   1.0000
     1.0000   1.0000   1.0000   1.0000   1.0000   1.0000   1.0000   1.0000
     1.0000   1.0000   1.0000   1.0000   1.0000   1.0000   1.0000   1.0000
     1.0000  -0.0172  -0.0000  -0.0000  -0.0000  -0.0000  -0.0000  -0.0000
    -0.0000  -0.0000  -0.0000  -0.0000  -0.0000  -0.0000  -0.0000  -0.0000
    -0.0000  -0.0000  -0.0000  -0.0000  -0.0000  -0.0000  -0.0000  -0.0000
    -0.0000  -0.0000  -0.0000  -0.0000  -0.0000  -0.0000  -0.0000  -0.0000
    -0.0000  -0.0000  -0.0000  -0.0000  -0.0000  -0.0000  -0.0000  -0.0000
    -0.0000  -0.0000  -0.0000  -0.0000  -0.0000  -0.0000  -0.0000  -0.0000
    -0.0000  -0.0000  -0.0000  -0.0000  -0.0000  -0.0000  -0.0000  -0.0000
    -0.0000  -0.0000  -0.0000  -0.0000  -0.0000  -0.0000  -0.0000  -0.0000
    -0.0000  -0.0000  -0.0000  -0.0000  -0.0000  -0.0000  -0.0000  -0.0000
    -0.0000  -0.0000

          k = 0.4444 0.3333 0.0000 (  1316 PWs)   bands (ev):

   -72.5436 -69.3243 -39.3188 -38.8363 -38.1460 -35.8098 -35.4219 -34.9766
    10.9409  11.3467  11.7102  11.7800  11.9217  12.3056  12.8527  12.9309
    14.3131  14.6906  14.9412  15.0659  15.1362  15.1851  15.4189  16.0204
    16.6317  16.7073  16.9492  17.2050  17.3595  17.9789  19.1763  20.0393
    26.5222  27.2953  28.0204  28.3978  28.6943  29.0127  29.2503  29.4225
    30.3951  30.8011  30.9145  31.1996  36.4962  36.9003  38.4785  38.8799
    39.8933  40.1661  42.3574  43.0141  53.9949  54.1107  56.4181  56.5876
    59.8117  59.8216  60.1910  60.3989  61.2176  61.3391  62.1574  62.4579
    62.5508  62.5838  64.2403  64.2932  65.2636  65.3284  67.4529  67.7446
    68.3480  68.6828  69.0865  69.3319  69.5186  69.8158  70.1213  70.5850
    70.8062  70.9721  72.4143  72.6748  72.7443  72.8330  73.2418  73.6834
    74.2199  74.7890  75.3865  75.8092  77.2569  77.5430  78.5607  78.8305
    79.8298  79.9776

     occupation numbers 
     1.0000   1.0000   1.0000   1.0000   1.0000   1.0000   1.0000   1.0000
     1.0000   1.0000   1.0000   1.0000   1.0000   1.0000   1.0000   1.0000
     1.0000   1.0000   1.0000   1.0000   1.0000   1.0000   1.0000   0.2049
    -0.0000  -0.0000  -0.0000  -0.0000  -0.0000  -0.0000  -0.0000  -0.0000
    -0.0000  -0.0000  -0.0000  -0.0000  -0.0000  -0.0000  -0.0000  -0.0000
    -0.0000  -0.0000  -0.0000  -0.0000  -0.0000  -0.0000  -0.0000  -0.0000
    -0.0000  -0.0000  -0.0000  -0.0000  -0.0000  -0.0000  -0.0000  -0.0000
    -0.0000  -0.0000  -0.0000  -0.0000  -0.0000  -0.0000  -0.0000  -0.0000
    -0.0000  -0.0000  -0.0000  -0.0000  -0.0000  -0.0000  -0.0000  -0.0000
    -0.0000  -0.0000  -0.0000  -0.0000  -0.0000  -0.0000  -0.0000  -0.0000
    -0.0000  -0.0000  -0.0000  -0.0000  -0.0000  -0.0000  -0.0000  -0.0000
    -0.0000  -0.0000  -0.0000  -0.0000  -0.0000  -0.0000  -0.0000  -0.0000
    -0.0000  -0.0000

          k = 0.4444 0.3333-0.1000 (  1321 PWs)   bands (ev):

   -72.5436 -69.3243 -39.3193 -38.8362 -38.1464 -35.8103 -35.4218 -34.9772
    11.0638  11.4828  11.7815  11.8635  12.0688  12.4497  12.9037  12.9999
    14.1517  14.2950  14.7526  14.7729  14.9693  15.3168  15.4729  15.6416
    16.2651  16.7506  17.1687  17.2429  17.6202  18.4740  19.6116  20.4627
    25.6185  26.1688  26.8392  27.4819  28.1030  28.6200  29.0470  29.5978
    31.2460  31.4550  31.9788  32.4881  36.6372  36.9922  37.3676  37.8264
    41.6504  41.9170  44.1830  44.7716  54.0885  54.2053  54.6984  54.8755
    56.7445  56.8870  57.0982  57.1139  61.6693  62.0874  62.7717  62.8488
    63.7022  63.7171  63.9239  64.2428  65.8168  66.0013  66.5294  66.8322
    67.6195  68.0144  68.6990  68.9305  69.1029  69.3515  70.7525  71.2033
    71.2648  71.5995  72.4528  72.7544  74.1777  74.4092  74.4648  74.7006
    76.7158  76.9583  77.3043  77.5045  77.5240  78.0843  78.2064  78.5056
    80.8062  81.0420

     occupation numbers 
     1.0000   1.0000   1.0000   1.0000   1.0000   1.0000   1.0000   1.0000
     1.0000   1.0000   1.0000   1.0000   1.0000   1.0000   1.0000   1.0000
     1.0000   1.0000   1.0000   1.0000   1.0000   1.0000   1.0000   1.0017
    -0.0044  -0.0000  -0.0000  -0.0000  -0.0000  -0.0000  -0.0000  -0.0000
    -0.0000  -0.0000  -0.0000  -0.0000  -0.0000  -0.0000  -0.0000  -0.0000
    -0.0000  -0.0000  -0.0000  -0.0000  -0.0000  -0.0000  -0.0000  -0.0000
    -0.0000  -0.0000  -0.0000  -0.0000  -0.0000  -0.0000  -0.0000  -0.0000
    -0.0000  -0.0000  -0.0000  -0.0000  -0.0000  -0.0000  -0.0000  -0.0000
    -0.0000  -0.0000  -0.0000  -0.0000  -0.0000  -0.0000  -0.0000  -0.0000
    -0.0000  -0.0000  -0.0000  -0.0000  -0.0000  -0.0000  -0.0000  -0.0000
    -0.0000  -0.0000  -0.0000  -0.0000  -0.0000  -0.0000  -0.0000  -0.0000
    -0.0000  -0.0000  -0.0000  -0.0000  -0.0000  -0.0000  -0.0000  -0.0000
    -0.0000  -0.0000

          k = 0.4444 0.3333-0.2000 (  1325 PWs)   bands (ev):

   -72.5436 -69.3242 -39.3201 -38.8363 -38.1472 -35.8111 -35.4219 -34.9782
    11.3802  11.8350  11.9600  12.1284  12.4286  12.8545  13.0205  13.2174
    13.5352  13.6700  14.4745  14.5492  14.5771  15.0277  15.2179  15.4718
    15.7089  16.4778  17.0729  17.7529  18.3484  19.4808  20.6148  21.4389
    23.4617  24.1256  25.9703  26.5116  27.2097  27.8380  29.3702  29.8819
    30.8660  31.2098  32.7508  33.3423  37.3502  37.6541  39.0630  39.3758
    44.7985  45.0395  47.4642  47.9413  50.1961  50.4058  51.7742  51.9593
    54.9247  55.0017  56.8446  56.8973  59.0143  59.2302  61.2107  61.3973
    61.4269  61.9403  62.1301  62.4369  64.2760  64.5784  65.7514  66.0697
    67.5623  67.8946  71.1349  71.2951  71.3879  71.5293  72.7961  73.0394
    73.0667  73.3923  74.3116  74.5201  74.8937  75.1327  75.7906  76.1001
    78.1265  78.3229  78.8313  78.9937  79.8532  80.2192  80.8034  81.2573
    82.7354  82.8195

     occupation numbers 
     1.0000   1.0000   1.0000   1.0000   1.0000   1.0000   1.0000   1.0000
     1.0000   1.0000   1.0000   1.0000   1.0000   1.0000   1.0000   1.0000
     1.0000   1.0000   1.0000   1.0000   1.0000   1.0000   1.0000   1.0000
     1.0105  -0.0000  -0.0000  -0.0000  -0.0000  -0.0000  -0.0000  -0.0000
    -0.0000  -0.0000  -0.0000  -0.0000  -0.0000  -0.0000  -0.0000  -0.0000
    -0.0000  -0.0000  -0.0000  -0.0000  -0.0000  -0.0000  -0.0000  -0.0000
    -0.0000  -0.0000  -0.0000  -0.0000  -0.0000  -0.0000  -0.0000  -0.0000
    -0.0000  -0.0000  -0.0000  -0.0000  -0.0000  -0.0000  -0.0000  -0.0000
    -0.0000  -0.0000  -0.0000  -0.0000  -0.0000  -0.0000  -0.0000  -0.0000
    -0.0000  -0.0000  -0.0000  -0.0000  -0.0000  -0.0000  -0.0000  -0.0000
    -0.0000  -0.0000  -0.0000  -0.0000  -0.0000  -0.0000  -0.0000  -0.0000
    -0.0000  -0.0000  -0.0000  -0.0000  -0.0000  -0.0000  -0.0000  -0.0000
    -0.0000  -0.0000

          k = 0.4444 0.3333-0.3000 (  1322 PWs)   bands (ev):

   -72.5435 -69.3242 -39.3206 -38.8362 -38.1476 -35.8117 -35.4218 -34.9789
    11.7576  12.0564  12.2817  12.4891  12.7923  12.9065  13.0629  13.2139
    13.3830  13.5631  14.0266  14.2008  14.3437  14.6228  15.1373  15.1852
    15.4520  16.3233  16.9784  17.7502  19.6374  20.6305  20.9441  21.7751
    22.6554  23.4139  24.1164  24.8205  27.9245  28.3129  29.1652  29.7974
    30.3804  30.6402  31.8531  32.6403  40.2915  40.4782  42.1905  42.4167
    45.0831  45.3015  47.1238  47.3090  49.6042  49.7797  51.5372  52.0762
    54.5621  54.7542  55.5781  55.6935  56.3899  56.5154  56.8843  57.4959
    60.9455  61.0038  61.6651  62.0762  63.9718  64.3065  65.0933  65.5337
    68.5935  68.8385  70.3224  70.5991  71.4903  71.7256  72.2537  72.6276
    75.7499  76.0743  76.1551  76.4362  77.4766  77.6326  77.8926  78.2566
    79.7759  80.1363  80.6796  80.8064  81.7131  82.0436  82.9417  83.1583
    84.0697  84.2873

     occupation numbers 
     1.0000   1.0000   1.0000   1.0000   1.0000   1.0000   1.0000   1.0000
     1.0000   1.0000   1.0000   1.0000   1.0000   1.0000   1.0000   1.0000
     1.0000   1.0000   1.0000   1.0000   1.0000   1.0000   1.0000   1.0000
     1.0000  -0.0007  -0.0000  -0.0000  -0.0000  -0.0000  -0.0000  -0.0000
    -0.0000  -0.0000  -0.0000  -0.0000  -0.0000  -0.0000  -0.0000  -0.0000
    -0.0000  -0.0000  -0.0000  -0.0000  -0.0000  -0.0000  -0.0000  -0.0000
    -0.0000  -0.0000  -0.0000  -0.0000  -0.0000  -0.0000  -0.0000  -0.0000
    -0.0000  -0.0000  -0.0000  -0.0000  -0.0000  -0.0000  -0.0000  -0.0000
    -0.0000  -0.0000  -0.0000  -0.0000  -0.0000  -0.0000  -0.0000  -0.0000
    -0.0000  -0.0000  -0.0000  -0.0000  -0.0000  -0.0000  -0.0000  -0.0000
    -0.0000  -0.0000  -0.0000  -0.0000  -0.0000  -0.0000  -0.0000  -0.0000
    -0.0000  -0.0000  -0.0000  -0.0000  -0.0000  -0.0000  -0.0000  -0.0000
    -0.0000  -0.0000

     the Fermi energy is    15.9692 ev
     (compare with:    15.9314 eV, computed in scf)

     Writing all to output data dir ./work/pwscf.save/
 
     init_run     :      0.28s CPU      0.31s WALL (       1 calls)
     electrons    :     82.56s CPU     85.47s WALL (       1 calls)

     Called by init_run:
     wfcinit      :      0.00s CPU      0.01s WALL (       1 calls)
     wfcinit:atom :      0.00s CPU      0.00s WALL (     100 calls)
     wfcinit:wfcr :      2.18s CPU      2.32s WALL (     100 calls)
     potinit      :      0.01s CPU      0.02s WALL (       1 calls)
     hinit0       :      0.13s CPU      0.14s WALL (       1 calls)

     Called by electrons:
     c_bands      :     82.54s CPU     85.45s WALL (       1 calls)
     v_of_rho     :      0.01s CPU      0.01s WALL (       1 calls)
     v_h          :      0.00s CPU      0.00s WALL (       1 calls)
     v_xc         :      0.01s CPU      0.01s WALL (       1 calls)
     newd         :      0.12s CPU      0.13s WALL (       1 calls)

     Called by c_bands:
     init_us_2    :      0.00s CPU      0.01s WALL (     100 calls)
     init_us_2:cp :      0.00s CPU      0.01s WALL (     100 calls)
     cegterg      :     80.18s CPU     82.63s WALL (     212 calls)

     Called by sum_band:

     Called by *egterg:
     cdiaghg      :     40.78s CPU     40.84s WALL (    3468 calls)
     cegterg:over :      3.76s CPU      3.92s WALL (    3368 calls)
     cegterg:upda :      1.15s CPU      1.15s WALL (    3368 calls)
     cegterg:last :      3.20s CPU      3.21s WALL (    1744 calls)
     h_psi        :     29.31s CPU     31.63s WALL (    3680 calls)
     s_psi        :      2.44s CPU      2.46s WALL (    3680 calls)
     g_psi        :      0.07s CPU      0.07s WALL (    3368 calls)

     Called by h_psi:
     h_psi:calbec :      1.05s CPU      1.15s WALL (    3680 calls)
     vloc_psi     :     25.85s CPU     27.97s WALL (    3680 calls)
     add_vuspsi   :      2.33s CPU      2.42s WALL (    3680 calls)

     General routines
     calbec       :      1.04s CPU      1.14s WALL (    3680 calls)
     fft          :      0.01s CPU      0.01s WALL (      31 calls)
     ffts         :      0.00s CPU      0.00s WALL (       4 calls)
     fftw         :     22.29s CPU     24.13s WALL (  709280 calls)
     interpolate  :      0.00s CPU      0.00s WALL (       4 calls)
 
     Parallel routines
 
     PWSCF        :   1m25.43s CPU   1m32.65s WALL

 
   This run was terminated on:  18:48: 7  18Jul2023            

=------------------------------------------------------------------------------=
   JOB DONE.
=------------------------------------------------------------------------------=
