 
             +---------------------------------------------------+
             |                                                   |
             |                   WANNIER90                       |
             |                                                   |
             +---------------------------------------------------+
             |                                                   |
             |        Welcome to the Maximally-Localized         |
             |        Generalized Wannier Functions code         |
             |            http://www.wannier.org                 |
             |                                                   |
             |                                                   |
             |  Wannier90 Developer Group:                       |
             |    Giovanni Pizzi    (EPFL)                       |
             |    Valerio Vitale    (Cambridge)                  |
             |    David Vanderbilt  (Rutgers University)         |
             |    Nicola Marzari    (EPFL)                       |
             |    Ivo Souza         (Universidad del Pais Vasco) |
             |    Arash A. Mostofi  (Imperial College London)    |
             |    Jonathan R. Yates (University of Oxford)       |
             |                                                   |
             |  For the full list of Wannier90 3.x authors,      |
             |  please check the code documentation and the      |
             |  README on the GitHub page of the code            |
             |                                                   |
             |                                                   |
             |  Please cite                                      |
             |                                                   |
             |  [ref] "Wannier90 as a community code:            |
             |        new features and applications",            |
             |        G. Pizzi et al., J. Phys. Cond. Matt. 32,  |
             |        165902 (2020).                             |
             |        http://doi.org/10.1088/1361-648X/ab51ff    |
             |                                                   |
             |  in any publications arising from the use of      |
             |  this code. For the method please cite            |
             |                                                   |
             |  [ref] "Maximally Localized Generalised Wannier   |
             |         Functions for Composite Energy Bands"     |
             |         N. Marzari and D. Vanderbilt              |
             |         Phys. Rev. B 56 12847 (1997)              |
             |                                                   |
             |  [ref] "Maximally Localized Wannier Functions     |
             |         for Entangled Energy Bands"               |
             |         I. Souza, N. Marzari and D. Vanderbilt    |
             |         Phys. Rev. B 65 035109 (2001)             |
             |                                                   |
             |                                                   |
             | Copyright (c) 1996-2020                           |
             |        The Wannier90 Developer Group and          |
             |        individual contributors                    |
             |                                                   |
             |      Release: 3.1.0        5th March    2020      |
             |                                                   |
             | This program is free software; you can            |
             | redistribute it and/or modify it under the terms  |
             | of the GNU General Public License as published by |
             | the Free Software Foundation; either version 2 of |
             | the License, or (at your option) any later version|
             |                                                   |
             | This program is distributed in the hope that it   |
             | will be useful, but WITHOUT ANY WARRANTY; without |
             | even the implied warranty of MERCHANTABILITY or   |
             | FITNESS FOR A PARTICULAR PURPOSE. See the GNU     |
             | General Public License for more details.          |
             |                                                   |
             | You should have received a copy of the GNU General|
             | Public License along with this program; if not,   |
             | write to the Free Software Foundation, Inc.,      |
             | 675 Mass Ave, Cambridge, MA 02139, USA.           |
             |                                                   |
             +---------------------------------------------------+
             |    Execution started on 18Jul2023 at 18:55:23     |
             +---------------------------------------------------+
 
 ******************************************************************************
 * -> Using CODATA 2006 constant values                                       *
 *    (http://physics.nist.gov/cuu/Constants/index.html)                      *
 * -> Using Bohr value from CODATA                                            *
 ******************************************************************************
 

 Running in parallel on  22 CPUs

 
                                    ------
                                    SYSTEM
                                    ------
 
                              Lattice Vectors (Ang)
                    a_1     2.506611   0.000000   0.000000
                    a_2     0.000000   2.506611   0.000000
                    a_3     0.000000   0.000000   3.581316
 
                   Unit Cell Volume:      22.50176  (Ang^3)
 
                        Reciprocal-Space Vectors (Ang^-1)
                    b_1     2.506646   0.000000   0.000000
                    b_2     0.000000   2.506646   0.000000
                    b_3     0.000000   0.000000   1.754435
  
 *----------------------------------------------------------------------------*
 |   Site       Fractional Coordinate          Cartesian Coordinate (Ang)     |
 +----------------------------------------------------------------------------+
 | Fe   1   0.00000   0.00000   0.00000   |    0.00000   0.00000   0.00000    |
 | Ni   1   0.50000   0.50000   0.50000   |    1.25331   1.25331   1.79066    |
 *----------------------------------------------------------------------------*
                                ------------
                                K-POINT GRID
                                ------------
  
             Grid size =  9 x  9 x  7      Total points =  567
  
  
 *---------------------------------- MAIN ------------------------------------*
 |  Number of Wannier Functions               :                36             |
 |  Number of Objective Wannier Functions     :                36             |
 |  Number of input Bloch states              :                90             |
 |  Output verbosity (1=low, 5=high)          :                 1             |
 |  Timing Level (1=low, 5=high)              :                 1             |
 |  Optimisation (0=memory, 3=speed)          :                 3             |
 |  Length Unit                               :               Ang             |
 |  Post-processing setup (write *.nnkp)      :                 F             |
 |  Using Gamma-only branch of algorithms     :                 F             |
 *----------------------------------------------------------------------------*
 *------------------------------- WANNIERISE ---------------------------------*
 |  Total number of iterations                :                 0             |
 |  Number of CG steps before reset           :                 5             |
 |  Trial step length for line search         :             2.000             |
 |  Convergence tolerence                     :         0.100E-09             |
 |  Convergence window                        :                -1             |
 |  Iterations between writing output         :                 1             |
 |  Iterations between backing up to disk     :               100             |
 |  Write r^2_nm to file                      :                 F             |
 |  Write xyz WF centres to file              :                 F             |
 |  Write on-site energies <0n|H|0n> to file  :                 F             |
 |  Use guiding centre to control phases      :                 F             |
 |  Use phases for initial projections        :                 F             |
 *----------------------------------------------------------------------------*
 *------------------------------- DISENTANGLE --------------------------------*
 |  Using band disentanglement                :                 T             |
 |  Total number of iterations                :               200             |
 |  Mixing ratio                              :             0.500             |
 |  Convergence tolerence                     :         1.000E-10             |
 |  Convergence window                        :                 3             |
 *----------------------------------------------------------------------------*
 *-------------------------------- PLOTTING ----------------------------------*
 |  Plotting interpolated bandstructure       :                 T             |
 |   Number of K-path sections                :                 9             |
 |   Divisions along first K-path section     :               100             |
 |   Output format                            :           gnuplot             |
 |   Output mode                              :               s-k             |
 *----------------------------------------------------------------------------*
 |   K-space path sections:                                                   |
 |    From: G       0.000  0.000  0.000     To: X       0.000  0.500  0.000   |
 |    From: X       0.000  0.500  0.000     To: M       0.500  0.500  0.000   |
 |    From: M       0.500  0.500  0.000     To: G       0.000  0.000  0.000   |
 |    From: G       0.000  0.000  0.000     To: Z       0.000  0.000  0.500   |
 |    From: Z       0.000  0.000  0.500     To: R       0.000  0.500  0.500   |
 |    From: R       0.000  0.500  0.500     To: A       0.500  0.500  0.500   |
 |    From: A       0.500  0.500  0.500     To: Z       0.000  0.000  0.500   |
 |    From: X       0.000  0.500  0.000     To: R       0.000  0.500  0.500   |
 |    From: M       0.500  0.500  0.000     To: A       0.500  0.500  0.500   |
 *----------------------------------------------------------------------------*
 |  Plotting Hamiltonian in WF basis          :                 T             |
 *----------------------------------------------------------------------------*
 Time to read parameters        0.062 (sec)

 *---------------------------------- K-MESH ----------------------------------*
 +----------------------------------------------------------------------------+
 |                    Distance to Nearest-Neighbour Shells                    |
 |                    ------------------------------------                    |
 |          Shell             Distance (Ang^-1)          Multiplicity         |
 |          -----             -----------------          ------------         |
 |             1                   0.250634                      2            |
 |             2                   0.278516                      4            |
 |             3                   0.374684                      8            |
 |             4                   0.393881                      4            |
 |             5                   0.466862                      8            |
 |             6                   0.501267                      2            |
 |             7                   0.557032                      4            |
 |             8                   0.573446                      8            |
 |             9                   0.610821                      8            |
 |            10                   0.622781                      8            |
 |            11                   0.637504                      8            |
 |            12                   0.671322                     16            |
 |            13                   0.749369                      8            |
 |            14                   0.751901                      2            |
 |            15                   0.787763                      4            |
 |            16                   0.799453                     16            |
 |            17                   0.801827                      8            |
 |            18                   0.826672                      8            |
 |            19                   0.835549                      4            |
 |            20                   0.848821                      8            |
 |            21                   0.872329                      8            |
 |            22                   0.880745                      8            |
 |            23                   0.915713                     16            |
 |            24                   0.933723                      8            |
 |            25                   0.935756                      8            |
 |            26                   0.974377                      8            |
 |            27                   0.976325                     16            |
 |            28                   1.002534                      2            |
 |            29                   1.004204                      8            |
 |            30                   1.013401                     16            |
 |            31                   1.035009                     16            |
 |            32                   1.040503                      8            |
 |            33                   1.077134                      8            |
 |            34                   1.089002                      8            |
 |            35                   1.114065                      4            |
 |            36                   1.122361                     16            |
 +----------------------------------------------------------------------------+
 | The b-vectors are chosen automatically                                     |
 | The following shells are used:   1,  2                                     |
 +----------------------------------------------------------------------------+
 |                        Shell   # Nearest-Neighbours                        |
 |                        -----   --------------------                        |
 |                          1               2                                 |
 |                          2               4                                 |
 +----------------------------------------------------------------------------+
 | Completeness relation is fully satisfied [Eq. (B1), PRB 56, 12847 (1997)]  |
 +----------------------------------------------------------------------------+
 |                  b_k Vectors (Ang^-1) and Weights (Ang^2)                  |
 |                  ----------------------------------------                  |
 |            No.         b_k(x)      b_k(y)      b_k(z)        w_b           |
 |            ---        --------------------------------     --------        |
 |             1         0.000000    0.000000    0.250634     7.959607        |
 |             2         0.000000    0.000000   -0.250634     7.959607        |
 |             3         0.000000    0.278516    0.000000     6.445686        |
 |             4         0.000000   -0.278516    0.000000     6.445686        |
 |             5         0.278516    0.000000    0.000000     6.445686        |
 |             6        -0.278516    0.000000    0.000000     6.445686        |
 +----------------------------------------------------------------------------+
 |                           b_k Directions (Ang^-1)                          |
 |                           -----------------------                          |
 |            No.           x           y           z                         |
 |            ---        --------------------------------                     |
 |             1         0.000000    0.000000    0.250634                     |
 |             2         0.000000    0.278516    0.000000                     |
 |             3         0.278516    0.000000    0.000000                     |
 +----------------------------------------------------------------------------+
  
 Time to get kmesh              0.275 (sec)
 *============================================================================*
 |                              MEMORY ESTIMATE                               |
 |         Maximum RAM allocated during each phase of the calculation         |
 *============================================================================*
 |                        Disentanglement          629.67 Mb                  |
 |                            Wannierise:          212.83 Mb                  |
 |                          plot_wannier:          212.83 Mb                  |
 *----------------------------------------------------------------------------*
  
 Starting a new Wannier90 calculation ...


 Reading overlaps from pwscf.mmn    : Mmn created by mmn.py

 Reading projections from pwscf.amn : Amn created by amn.py

 Time to read overlaps         18.537 (sec)

 *------------------------------- DISENTANGLE --------------------------------*
 +----------------------------------------------------------------------------+
 |                              Energy  Windows                               |
 |                              ---------------                               |
 |                   Outer:    7.00462  to   87.58490  (eV)                   |
 |                   Inner: **********  to   20.96860  (eV)                   |
 +----------------------------------------------------------------------------+
   Number of target bands to extract:   36

                   Unitarised projection of Wannier functions                  
                   ------------------------------------------                  
   A_mn = <psi_m|g_n> --> S = A.A^+ --> U = S^-1/2.A
   In dis_project... done
   Using an inner window (linner = T)
   In dis_proj_froz... done

                   Extraction of optimally-connected subspace                  
                   ------------------------------------------                  
 +---------------------------------------------------------------------+<-- DIS
 |  Iter     Omega_I(i-1)      Omega_I(i)      Delta (frac.)    Time   |<-- DIS
 +---------------------------------------------------------------------+<-- DIS
       1      21.74412609      20.42316864       6.468E-02      0.00    <-- DIS
       2      20.92488432      20.01409641       4.551E-02      0.12    <-- DIS
       3      20.41557604      19.71678214       3.544E-02      0.24    <-- DIS
       4      20.02250068      19.48026049       2.784E-02      0.35    <-- DIS
       5      19.71550589      19.28586379       2.228E-02      0.47    <-- DIS
       6      19.47072191      19.12256362       1.821E-02      0.58    <-- DIS
       7      19.27123531      18.98311898       1.518E-02      0.70    <-- DIS
       8      19.10535769      18.86251823       1.287E-02      0.82    <-- DIS
       9      18.96500338      18.75715243       1.108E-02      0.95    <-- DIS
      10      18.84450456      18.66433618       9.653E-03      1.06    <-- DIS
      11      18.73980880      18.58201531       8.492E-03      1.18    <-- DIS
      12      18.64795082      18.50858156       7.530E-03      1.30    <-- DIS
      13      18.56670777      18.44275086       6.721E-03      1.41    <-- DIS
      14      18.49437373      18.38348083       6.032E-03      1.53    <-- DIS
      15      18.42961064      18.32991335       5.439E-03      1.64    <-- DIS
      16      18.37134838      18.28133352       4.924E-03      1.76    <-- DIS
      17      18.31871646      18.23713966       4.473E-03      1.88    <-- DIS
      18      18.27099637      18.19682092       4.076E-03      2.00    <-- DIS
      19      18.22758770      18.15994027       3.725E-03      2.11    <-- DIS
      20      18.18798340      18.12612137       3.413E-03      2.23    <-- DIS
      21      18.15175142      18.09503826       3.134E-03      2.34    <-- DIS
      22      18.11852086      18.06640717       2.885E-03      2.46    <-- DIS
      23      18.08797115      18.03997996       2.660E-03      2.57    <-- DIS
      24      18.05982371      18.01553875       2.458E-03      2.69    <-- DIS
      25      18.03383520      17.99289152       2.276E-03      2.81    <-- DIS
      26      18.00979218      17.97186852       2.110E-03      2.92    <-- DIS
      27      17.98750667      17.95231921       1.960E-03      3.04    <-- DIS
      28      17.96681254      17.93410972       1.823E-03      3.16    <-- DIS
      29      17.94756255      17.91712070       1.699E-03      3.27    <-- DIS
      30      17.92962577      17.90124552       1.585E-03      3.39    <-- DIS
      31      17.91288551      17.88638866       1.481E-03      3.50    <-- DIS
      32      17.89723749      17.87246442       1.386E-03      3.62    <-- DIS
      33      17.88258832      17.85939573       1.299E-03      3.73    <-- DIS
      34      17.86885422      17.84711316       1.218E-03      3.85    <-- DIS
      35      17.85595982      17.83555406       1.144E-03      3.97    <-- DIS
      36      17.84383722      17.82466182       1.076E-03      4.08    <-- DIS
      37      17.83242516      17.81438515       1.013E-03      4.20    <-- DIS
      38      17.82166825      17.80467757       9.543E-04      4.31    <-- DIS
      39      17.81151632      17.79549685       9.002E-04      4.43    <-- DIS
      40      17.80192388      17.78680459       8.500E-04      4.55    <-- DIS
      41      17.79284961      17.77856583       8.034E-04      4.66    <-- DIS
      42      17.78425592      17.77074867       7.601E-04      4.78    <-- DIS
      43      17.77610856      17.76332397       7.197E-04      4.89    <-- DIS
      44      17.76837630      17.75626511       6.821E-04      5.01    <-- DIS
      45      17.76103060      17.74954768       6.469E-04      5.13    <-- DIS
      46      17.75404536      17.74314932       6.141E-04      5.24    <-- DIS
      47      17.74739667      17.73704951       5.834E-04      5.36    <-- DIS
      48      17.74106260      17.73122938       5.546E-04      5.47    <-- DIS
      49      17.73502301      17.72567155       5.276E-04      5.59    <-- DIS
      50      17.72925940      17.72036002       5.022E-04      5.71    <-- DIS
      51      17.72375473      17.71528004       4.784E-04      5.82    <-- DIS
      52      17.71849327      17.71041798       4.560E-04      5.94    <-- DIS
      53      17.71346055      17.70576121       4.348E-04      6.05    <-- DIS
      54      17.70864315      17.70129807       4.149E-04      6.17    <-- DIS
      55      17.70402870      17.69701774       3.962E-04      6.29    <-- DIS
      56      17.69960572      17.69291019       3.784E-04      6.40    <-- DIS
      57      17.69536356      17.68896607       3.617E-04      6.52    <-- DIS
      58      17.69129236      17.68517673       3.458E-04      6.63    <-- DIS
      59      17.68738293      17.68153408       3.308E-04      6.75    <-- DIS
      60      17.68362673      17.67803060       3.166E-04      6.87    <-- DIS
      61      17.68001581      17.67465926       3.031E-04      6.98    <-- DIS
      62      17.67654276      17.67141349       2.903E-04      7.10    <-- DIS
      63      17.67320064      17.66828717       2.781E-04      7.22    <-- DIS
      64      17.66998299      17.66527455       2.665E-04      7.33    <-- DIS
      65      17.66688375      17.66237024       2.555E-04      7.45    <-- DIS
      66      17.66389726      17.65956920       2.451E-04      7.57    <-- DIS
      67      17.66101820      17.65686668       2.351E-04      7.68    <-- DIS
      68      17.65824158      17.65425822       2.256E-04      7.80    <-- DIS
      69      17.65556272      17.65173964       2.166E-04      7.91    <-- DIS
      70      17.65297722      17.64930699       2.080E-04      8.03    <-- DIS
      71      17.65048093      17.64695653       1.997E-04      8.14    <-- DIS
      72      17.64806994      17.64468477       1.919E-04      8.26    <-- DIS
      73      17.64574057      17.64248838       1.843E-04      8.38    <-- DIS
      74      17.64348934      17.64036423       1.772E-04      8.49    <-- DIS
      75      17.64131297      17.63830934       1.703E-04      8.61    <-- DIS
      76      17.63920836      17.63632092       1.637E-04      8.72    <-- DIS
      77      17.63717256      17.63439631       1.574E-04      8.84    <-- DIS
      78      17.63520280      17.63253297       1.514E-04      8.96    <-- DIS
      79      17.63329642      17.63072851       1.456E-04      9.07    <-- DIS
      80      17.63145093      17.62898065       1.401E-04      9.19    <-- DIS
      81      17.62966396      17.62728724       1.348E-04      9.30    <-- DIS
      82      17.62793324      17.62564621       1.298E-04      9.42    <-- DIS
      83      17.62625662      17.62405561       1.249E-04      9.54    <-- DIS
      84      17.62463207      17.62251356       1.202E-04      9.65    <-- DIS
      85      17.62305763      17.62101829       1.157E-04      9.77    <-- DIS
      86      17.62153145      17.61956810       1.114E-04      9.89    <-- DIS
      87      17.62005177      17.61816137       1.073E-04     10.00    <-- DIS
      88      17.61861689      17.61679655       1.033E-04     10.12    <-- DIS
      89      17.61722520      17.61547217       9.952E-05     10.23    <-- DIS
      90      17.61587517      17.61418680       9.585E-05     10.35    <-- DIS
      91      17.61456533      17.61293910       9.233E-05     10.47    <-- DIS
      92      17.61329426      17.61172776       8.895E-05     10.58    <-- DIS
      93      17.61206062      17.61055155       8.569E-05     10.70    <-- DIS
      94      17.61086312      17.60940928       8.256E-05     10.82    <-- DIS
      95      17.60970052      17.60829981       7.955E-05     10.93    <-- DIS
      96      17.60857165      17.60722204       7.665E-05     11.05    <-- DIS
      97      17.60747537      17.60617492       7.386E-05     11.16    <-- DIS
      98      17.60641058      17.60515745       7.118E-05     11.28    <-- DIS
      99      17.60537624      17.60416865       6.860E-05     11.40    <-- DIS
     100      17.60437135      17.60320760       6.611E-05     11.51    <-- DIS
     101      17.60339494      17.60227340       6.372E-05     11.63    <-- DIS
     102      17.60244609      17.60136520       6.141E-05     11.74    <-- DIS
     103      17.60152390      17.60048215       5.919E-05     11.86    <-- DIS
     104      17.60062752      17.59962348       5.705E-05     11.98    <-- DIS
     105      17.59975613      17.59878840       5.499E-05     12.09    <-- DIS
     106      17.59890892      17.59797618       5.300E-05     12.21    <-- DIS
     107      17.59808515      17.59718612       5.109E-05     12.32    <-- DIS
     108      17.59728406      17.59641751       4.925E-05     12.44    <-- DIS
     109      17.59650495      17.59566971       4.747E-05     12.56    <-- DIS
     110      17.59574714      17.59494208       4.576E-05     12.67    <-- DIS
     111      17.59500997      17.59423399       4.410E-05     12.79    <-- DIS
     112      17.59429281      17.59354486       4.251E-05     12.90    <-- DIS
     113      17.59359503      17.59287411       4.098E-05     13.02    <-- DIS
     114      17.59291606      17.59222120       3.950E-05     13.14    <-- DIS
     115      17.59225531      17.59158558       3.807E-05     13.25    <-- DIS
     116      17.59161225      17.59096675       3.669E-05     13.37    <-- DIS
     117      17.59098633      17.59036420       3.537E-05     13.48    <-- DIS
     118      17.59037705      17.58977745       3.409E-05     13.60    <-- DIS
     119      17.58978390      17.58920604       3.285E-05     13.72    <-- DIS
     120      17.58920642      17.58864952       3.166E-05     13.83    <-- DIS
     121      17.58864413      17.58810745       3.051E-05     13.95    <-- DIS
     122      17.58809659      17.58757942       2.941E-05     14.06    <-- DIS
     123      17.58756337      17.58706501       2.834E-05     14.18    <-- DIS
     124      17.58704404      17.58656384       2.731E-05     14.30    <-- DIS
     125      17.58653821      17.58607552       2.631E-05     14.41    <-- DIS
     126      17.58604548      17.58559969       2.535E-05     14.53    <-- DIS
     127      17.58556547      17.58513599       2.442E-05     14.65    <-- DIS
     128      17.58509782      17.58468407       2.353E-05     14.76    <-- DIS
     129      17.58464217      17.58424360       2.267E-05     14.88    <-- DIS
     130      17.58419818      17.58381426       2.183E-05     14.99    <-- DIS
     131      17.58376551      17.58339573       2.103E-05     15.11    <-- DIS
     132      17.58334385      17.58298771       2.026E-05     15.23    <-- DIS
     133      17.58293288      17.58258991       1.951E-05     15.34    <-- DIS
     134      17.58253231      17.58220203       1.878E-05     15.46    <-- DIS
     135      17.58214183      17.58182382       1.809E-05     15.57    <-- DIS
     136      17.58176117      17.58145499       1.741E-05     15.69    <-- DIS
     137      17.58139005      17.58109529       1.677E-05     15.81    <-- DIS
     138      17.58102821      17.58074447       1.614E-05     15.92    <-- DIS
     139      17.58067538      17.58040228       1.553E-05     16.04    <-- DIS
     140      17.58033132      17.58006849       1.495E-05     16.16    <-- DIS
     141      17.57999579      17.57974287       1.439E-05     16.27    <-- DIS
     142      17.57966855      17.57942519       1.384E-05     16.39    <-- DIS
     143      17.57934937      17.57911524       1.332E-05     16.50    <-- DIS
     144      17.57903804      17.57881282       1.281E-05     16.62    <-- DIS
     145      17.57873433      17.57851771       1.232E-05     16.74    <-- DIS
     146      17.57843805      17.57822973       1.185E-05     16.85    <-- DIS
     147      17.57814898      17.57794868       1.140E-05     16.97    <-- DIS
     148      17.57786694      17.57767437       1.096E-05     17.08    <-- DIS
     149      17.57759174      17.57740663       1.053E-05     17.20    <-- DIS
     150      17.57732318      17.57714528       1.012E-05     17.32    <-- DIS
     151      17.57706110      17.57689015       9.726E-06     17.43    <-- DIS
     152      17.57680532      17.57664108       9.345E-06     17.55    <-- DIS
     153      17.57655567      17.57639790       8.976E-06     17.66    <-- DIS
     154      17.57631199      17.57616047       8.621E-06     17.78    <-- DIS
     155      17.57607412      17.57592863       8.278E-06     17.90    <-- DIS
     156      17.57584190      17.57570223       7.947E-06     18.01    <-- DIS
     157      17.57561519      17.57548114       7.627E-06     18.13    <-- DIS
     158      17.57539385      17.57526522       7.319E-06     18.25    <-- DIS
     159      17.57517772      17.57505432       7.021E-06     18.36    <-- DIS
     160      17.57496668      17.57484832       6.734E-06     18.48    <-- DIS
     161      17.57476058      17.57464710       6.457E-06     18.59    <-- DIS
     162      17.57455931      17.57445053       6.190E-06     18.71    <-- DIS
     163      17.57436274      17.57425850       5.932E-06     18.83    <-- DIS
     164      17.57417074      17.57407087       5.683E-06     18.94    <-- DIS
     165      17.57398320      17.57388755       5.443E-06     19.06    <-- DIS
     166      17.57380001      17.57370843       5.211E-06     19.18    <-- DIS
     167      17.57362104      17.57353339       4.988E-06     19.29    <-- DIS
     168      17.57344619      17.57336233       4.772E-06     19.41    <-- DIS
     169      17.57327536      17.57319516       4.564E-06     19.52    <-- DIS
     170      17.57310844      17.57303177       4.363E-06     19.64    <-- DIS
     171      17.57294534      17.57287206       4.170E-06     19.76    <-- DIS
     172      17.57278595      17.57271596       3.983E-06     19.87    <-- DIS
     173      17.57263019      17.57256336       3.803E-06     19.99    <-- DIS
     174      17.57247796      17.57241418       3.630E-06     20.11    <-- DIS
     175      17.57232917      17.57226833       3.462E-06     20.22    <-- DIS
     176      17.57218374      17.57212573       3.301E-06     20.34    <-- DIS
     177      17.57204157      17.57198631       3.145E-06     20.45    <-- DIS
     178      17.57190260      17.57184997       2.995E-06     20.57    <-- DIS
     179      17.57176674      17.57171665       2.850E-06     20.69    <-- DIS
     180      17.57163391      17.57158627       2.711E-06     20.80    <-- DIS
     181      17.57150404      17.57145876       2.577E-06     20.92    <-- DIS
     182      17.57137705      17.57133405       2.447E-06     21.03    <-- DIS
     183      17.57125287      17.57121207       2.322E-06     21.15    <-- DIS
     184      17.57113144      17.57109275       2.202E-06     21.27    <-- DIS
     185      17.57101269      17.57097603       2.086E-06     21.38    <-- DIS
     186      17.57089654      17.57086185       1.975E-06     21.50    <-- DIS
     187      17.57078294      17.57075014       1.867E-06     21.61    <-- DIS
     188      17.57067183      17.57064084       1.763E-06     21.73    <-- DIS
     189      17.57056314      17.57053390       1.664E-06     21.85    <-- DIS
     190      17.57045681      17.57042927       1.568E-06     21.96    <-- DIS
     191      17.57035279      17.57032687       1.475E-06     22.08    <-- DIS
     192      17.57025102      17.57022667       1.386E-06     22.19    <-- DIS
     193      17.57015146      17.57012861       1.300E-06     22.31    <-- DIS
     194      17.57005403      17.57003263       1.218E-06     22.43    <-- DIS
     195      17.56995870      17.56993870       1.139E-06     22.54    <-- DIS
     196      17.56986541      17.56984675       1.062E-06     22.66    <-- DIS
     197      17.56977412      17.56975675       9.886E-07     22.77    <-- DIS
     198      17.56968477      17.56966864       9.180E-07     22.89    <-- DIS
     199      17.56959732      17.56958239       8.500E-07     23.01    <-- DIS
     200      17.56951173      17.56949794       7.846E-07     23.12    <-- DIS

     <<< Warning: Maximum number of disentanglement iterations reached >>>
          <<< Disentanglement convergence criteria not satisfied >>>

        Final Omega_I    17.56949794 (Ang^2)

 +----------------------------------------------------------------------------+

 Time to disentangle bands     27.114 (sec)

 done

 
 *------------------------------- WANNIERISE ---------------------------------*
 +--------------------------------------------------------------------+<-- CONV
 | Iter  Delta Spread     RMS Gradient      Spread (Ang^2)      Time  |<-- CONV
 +--------------------------------------------------------------------+<-- CONV
 
 ------------------------------------------------------------------------------
 Initial State
  WF centre and spread    1  ( -0.000000, -0.000000,  0.000000 )     1.42503785
  WF centre and spread    2  ( -0.000000,  0.000000,  0.000000 )     1.42503785
  WF centre and spread    3  (  0.000000, -0.000000,  0.000000 )     1.40201847
  WF centre and spread    4  ( -0.000000,  0.000000,  0.000000 )     1.40201847
  WF centre and spread    5  ( -0.000000, -0.000000, -0.000000 )     1.36414534
  WF centre and spread    6  (  0.000000,  0.000000, -0.000000 )     1.36414534
  WF centre and spread    7  ( -0.000000,  0.000000,  0.000000 )     1.36413232
  WF centre and spread    8  ( -0.000000, -0.000000,  0.000000 )     1.36413232
  WF centre and spread    9  (  0.000000,  0.000000, -0.000000 )     0.48763844
  WF centre and spread   10  ( -0.000000, -0.000000, -0.000000 )     0.48763844
  WF centre and spread   11  ( -0.000000, -0.000000,  0.000000 )     0.48342317
  WF centre and spread   12  (  0.000000,  0.000000,  0.000000 )     0.48342317
  WF centre and spread   13  ( -0.000000,  0.000000,  0.000000 )     0.48342413
  WF centre and spread   14  (  0.000000, -0.000000,  0.000000 )     0.48342413
  WF centre and spread   15  ( -0.000000, -0.000000, -0.000000 )     0.47476795
  WF centre and spread   16  (  0.000000,  0.000000, -0.000000 )     0.47476795
  WF centre and spread   17  ( -0.000000,  0.000000,  0.000000 )     0.49721519
  WF centre and spread   18  (  0.000000, -0.000000,  0.000000 )     0.49721519
  WF centre and spread   19  (  1.253306,  1.253306,  1.790658 )     1.31949731
  WF centre and spread   20  (  1.253306,  1.253305,  1.790658 )     1.31949731
  WF centre and spread   21  (  1.253306,  1.253305,  1.790658 )     1.26091293
  WF centre and spread   22  (  1.253306,  1.253306,  1.790658 )     1.26091293
  WF centre and spread   23  (  1.253306,  1.253305,  1.790658 )     1.26888779
  WF centre and spread   24  (  1.253306,  1.253306,  1.790658 )     1.26888779
  WF centre and spread   25  (  1.253306,  1.253306,  1.790658 )     1.26887953
  WF centre and spread   26  (  1.253306,  1.253305,  1.790658 )     1.26887953
  WF centre and spread   27  (  1.253306,  1.253306,  1.790658 )     0.41089439
  WF centre and spread   28  (  1.253306,  1.253306,  1.790658 )     0.41089439
  WF centre and spread   29  (  1.253306,  1.253305,  1.790658 )     0.40137084
  WF centre and spread   30  (  1.253306,  1.253306,  1.790658 )     0.40137084
  WF centre and spread   31  (  1.253306,  1.253306,  1.790658 )     0.40137044
  WF centre and spread   32  (  1.253306,  1.253306,  1.790658 )     0.40137044
  WF centre and spread   33  (  1.253306,  1.253305,  1.790658 )     0.40323607
  WF centre and spread   34  (  1.253306,  1.253306,  1.790658 )     0.40323607
  WF centre and spread   35  (  1.253306,  1.253306,  1.790658 )     0.40787133
  WF centre and spread   36  (  1.253306,  1.253305,  1.790658 )     0.40787133
  Sum of centres and spreads ( 22.559499, 22.559499, 32.231844 )    30.24944699
 
      0     0.302E+02     0.0000000000       30.2494469624      24.90  <-- CONV
        O_D=      0.0000026 O_OD=     12.6799464 O_TOT=     30.2494470 <-- SPRD
 ------------------------------------------------------------------------------
 Final State
  WF centre and spread    1  ( -0.000000, -0.000000,  0.000000 )     1.42503785
  WF centre and spread    2  ( -0.000000,  0.000000,  0.000000 )     1.42503785
  WF centre and spread    3  (  0.000000, -0.000000,  0.000000 )     1.40201847
  WF centre and spread    4  ( -0.000000,  0.000000,  0.000000 )     1.40201847
  WF centre and spread    5  ( -0.000000, -0.000000, -0.000000 )     1.36414534
  WF centre and spread    6  (  0.000000,  0.000000, -0.000000 )     1.36414534
  WF centre and spread    7  ( -0.000000,  0.000000,  0.000000 )     1.36413232
  WF centre and spread    8  ( -0.000000, -0.000000,  0.000000 )     1.36413232
  WF centre and spread    9  (  0.000000,  0.000000, -0.000000 )     0.48763844
  WF centre and spread   10  ( -0.000000, -0.000000, -0.000000 )     0.48763844
  WF centre and spread   11  ( -0.000000, -0.000000,  0.000000 )     0.48342317
  WF centre and spread   12  (  0.000000,  0.000000,  0.000000 )     0.48342317
  WF centre and spread   13  ( -0.000000,  0.000000,  0.000000 )     0.48342413
  WF centre and spread   14  (  0.000000, -0.000000,  0.000000 )     0.48342413
  WF centre and spread   15  ( -0.000000, -0.000000, -0.000000 )     0.47476795
  WF centre and spread   16  (  0.000000,  0.000000, -0.000000 )     0.47476795
  WF centre and spread   17  ( -0.000000,  0.000000,  0.000000 )     0.49721519
  WF centre and spread   18  (  0.000000, -0.000000,  0.000000 )     0.49721519
  WF centre and spread   19  (  1.253306,  1.253306,  1.790658 )     1.31949731
  WF centre and spread   20  (  1.253306,  1.253305,  1.790658 )     1.31949731
  WF centre and spread   21  (  1.253306,  1.253305,  1.790658 )     1.26091293
  WF centre and spread   22  (  1.253306,  1.253306,  1.790658 )     1.26091293
  WF centre and spread   23  (  1.253306,  1.253305,  1.790658 )     1.26888779
  WF centre and spread   24  (  1.253306,  1.253306,  1.790658 )     1.26888779
  WF centre and spread   25  (  1.253306,  1.253306,  1.790658 )     1.26887953
  WF centre and spread   26  (  1.253306,  1.253305,  1.790658 )     1.26887953
  WF centre and spread   27  (  1.253306,  1.253306,  1.790658 )     0.41089439
  WF centre and spread   28  (  1.253306,  1.253306,  1.790658 )     0.41089439
  WF centre and spread   29  (  1.253306,  1.253305,  1.790658 )     0.40137084
  WF centre and spread   30  (  1.253306,  1.253306,  1.790658 )     0.40137084
  WF centre and spread   31  (  1.253306,  1.253306,  1.790658 )     0.40137044
  WF centre and spread   32  (  1.253306,  1.253306,  1.790658 )     0.40137044
  WF centre and spread   33  (  1.253306,  1.253305,  1.790658 )     0.40323607
  WF centre and spread   34  (  1.253306,  1.253306,  1.790658 )     0.40323607
  WF centre and spread   35  (  1.253306,  1.253306,  1.790658 )     0.40787133
  WF centre and spread   36  (  1.253306,  1.253305,  1.790658 )     0.40787133
  Sum of centres and spreads ( 22.559499, 22.559499, 32.231844 )    30.24944699
 
         Spreads (Ang^2)       Omega I      =    17.569497944
        ================       Omega D      =     0.000002590
                               Omega OD     =    12.679946428
    Final Spread (Ang^2)       Omega Total  =    30.249446962
 ------------------------------------------------------------------------------
 Time for wannierise            0.125 (sec)

 done

 *---------------------------------------------------------------------------*
 |                               PLOTTING                                    |
 *---------------------------------------------------------------------------*
 
 
 Calculating interpolated band-structure
 
 Time to calculate interpolated band structure      34.824 (sec)
 
 Time for plotting            114.408 (sec)
 Total Execution Time         160.686 (sec)

 *===========================================================================*
 |                             TIMING INFORMATION                            |
 *===========================================================================*
 |    Tag                                                Ncalls      Time (s)|
 |---------------------------------------------------------------------------|
 |kmesh: get                                        :         1         0.275|
 |overlap: allocate                                 :         1         0.006|
 |overlap: read                                     :         1        18.530|
 |dis: main                                         :         1        27.114|
 |wann: main                                        :         1         0.125|
 |plot: main                                        :         1       114.408|
 *---------------------------------------------------------------------------*
 
 All done: wannier90 exiting
