 
             +---------------------------------------------------+
             |                                                   |
             |                   WANNIER90                       |
             |                                                   |
             +---------------------------------------------------+
             |                                                   |
             |        Welcome to the Maximally-Localized         |
             |        Generalized Wannier Functions code         |
             |            http://www.wannier.org                 |
             |                                                   |
             |                                                   |
             |  Wannier90 Developer Group:                       |
             |    Giovanni Pizzi    (EPFL)                       |
             |    Valerio Vitale    (Cambridge)                  |
             |    David Vanderbilt  (Rutgers University)         |
             |    Nicola Marzari    (EPFL)                       |
             |    Ivo Souza         (Universidad del Pais Vasco) |
             |    Arash A. Mostofi  (Imperial College London)    |
             |    Jonathan R. Yates (University of Oxford)       |
             |                                                   |
             |  For the full list of Wannier90 3.x authors,      |
             |  please check the code documentation and the      |
             |  README on the GitHub page of the code            |
             |                                                   |
             |                                                   |
             |  Please cite                                      |
             |                                                   |
             |  [ref] "Wannier90 as a community code:            |
             |        new features and applications",            |
             |        G. Pizzi et al., J. Phys. Cond. Matt. 32,  |
             |        165902 (2020).                             |
             |        http://doi.org/10.1088/1361-648X/ab51ff    |
             |                                                   |
             |  in any publications arising from the use of      |
             |  this code. For the method please cite            |
             |                                                   |
             |  [ref] "Maximally Localized Generalised Wannier   |
             |         Functions for Composite Energy Bands"     |
             |         N. Marzari and D. Vanderbilt              |
             |         Phys. Rev. B 56 12847 (1997)              |
             |                                                   |
             |  [ref] "Maximally Localized Wannier Functions     |
             |         for Entangled Energy Bands"               |
             |         I. Souza, N. Marzari and D. Vanderbilt    |
             |         Phys. Rev. B 65 035109 (2001)             |
             |                                                   |
             |                                                   |
             | Copyright (c) 1996-2020                           |
             |        The Wannier90 Developer Group and          |
             |        individual contributors                    |
             |                                                   |
             |      Release: 3.1.0        5th March    2020      |
             |                                                   |
             | This program is free software; you can            |
             | redistribute it and/or modify it under the terms  |
             | of the GNU General Public License as published by |
             | the Free Software Foundation; either version 2 of |
             | the License, or (at your option) any later version|
             |                                                   |
             | This program is distributed in the hope that it   |
             | will be useful, but WITHOUT ANY WARRANTY; without |
             | even the implied warranty of MERCHANTABILITY or   |
             | FITNESS FOR A PARTICULAR PURPOSE. See the GNU     |
             | General Public License for more details.          |
             |                                                   |
             | You should have received a copy of the GNU General|
             | Public License along with this program; if not,   |
             | write to the Free Software Foundation, Inc.,      |
             | 675 Mass Ave, Cambridge, MA 02139, USA.           |
             |                                                   |
             +---------------------------------------------------+
             |    Execution started on  2Aug2023 at 15:38:05     |
             +---------------------------------------------------+
 
 ******************************************************************************
 * -> Using CODATA 2006 constant values                                       *
 *    (http://physics.nist.gov/cuu/Constants/index.html)                      *
 * -> Using Bohr value from CODATA                                            *
 ******************************************************************************
 

 Running in parallel on  22 CPUs

 
                                    ------
                                    SYSTEM
                                    ------
 
                              Lattice Vectors (Ang)
                    a_1     2.728143   0.000000   0.000000
                    a_2     0.000000   2.728143   0.000000
                    a_3     0.000000   0.000000   3.778984
 
                   Unit Cell Volume:      28.12609  (Ang^3)
 
                        Reciprocal-Space Vectors (Ang^-1)
                    b_1     2.303100   0.000000   0.000000
                    b_2     0.000000   2.303100   0.000000
                    b_3     0.000000   0.000000   1.662665
  
 *----------------------------------------------------------------------------*
 |   Site       Fractional Coordinate          Cartesian Coordinate (Ang)     |
 +----------------------------------------------------------------------------+
 | Fe   1   0.00000   0.00000   0.00000   |    0.00000   0.00000   0.00000    |
 | Pt   1   0.50000   0.50000   0.50000   |    1.36407   1.36407   1.88949    |
 *----------------------------------------------------------------------------*
                                ------------
                                K-POINT GRID
                                ------------
  
             Grid size =  9 x  9 x  6      Total points =  486
  
  
 *---------------------------------- MAIN ------------------------------------*
 |  Number of Wannier Functions               :                36             |
 |  Number of Objective Wannier Functions     :                36             |
 |  Number of input Bloch states              :                90             |
 |  Output verbosity (1=low, 5=high)          :                 1             |
 |  Timing Level (1=low, 5=high)              :                 1             |
 |  Optimisation (0=memory, 3=speed)          :                 3             |
 |  Length Unit                               :               Ang             |
 |  Post-processing setup (write *.nnkp)      :                 F             |
 |  Using Gamma-only branch of algorithms     :                 F             |
 *----------------------------------------------------------------------------*
 *------------------------------- WANNIERISE ---------------------------------*
 |  Total number of iterations                :                 0             |
 |  Number of CG steps before reset           :                 5             |
 |  Trial step length for line search         :             2.000             |
 |  Convergence tolerence                     :         0.100E-09             |
 |  Convergence window                        :                -1             |
 |  Iterations between writing output         :                 1             |
 |  Iterations between backing up to disk     :               100             |
 |  Write r^2_nm to file                      :                 F             |
 |  Write xyz WF centres to file              :                 F             |
 |  Write on-site energies <0n|H|0n> to file  :                 F             |
 |  Use guiding centre to control phases      :                 F             |
 |  Use phases for initial projections        :                 F             |
 *----------------------------------------------------------------------------*
 *------------------------------- DISENTANGLE --------------------------------*
 |  Using band disentanglement                :                 T             |
 |  Total number of iterations                :               200             |
 |  Mixing ratio                              :             0.500             |
 |  Convergence tolerence                     :         1.000E-10             |
 |  Convergence window                        :                 3             |
 *----------------------------------------------------------------------------*
 *-------------------------------- PLOTTING ----------------------------------*
 |  Plotting interpolated bandstructure       :                 T             |
 |   Number of K-path sections                :                 9             |
 |   Divisions along first K-path section     :               100             |
 |   Output format                            :           gnuplot             |
 |   Output mode                              :               s-k             |
 *----------------------------------------------------------------------------*
 |   K-space path sections:                                                   |
 |    From: G       0.000  0.000  0.000     To: X       0.000  0.500  0.000   |
 |    From: X       0.000  0.500  0.000     To: M       0.500  0.500  0.000   |
 |    From: M       0.500  0.500  0.000     To: G       0.000  0.000  0.000   |
 |    From: G       0.000  0.000  0.000     To: Z       0.000  0.000  0.500   |
 |    From: Z       0.000  0.000  0.500     To: R       0.000  0.500  0.500   |
 |    From: R       0.000  0.500  0.500     To: A       0.500  0.500  0.500   |
 |    From: A       0.500  0.500  0.500     To: Z       0.000  0.000  0.500   |
 |    From: X       0.000  0.500  0.000     To: R       0.000  0.500  0.500   |
 |    From: M       0.500  0.500  0.000     To: A       0.500  0.500  0.500   |
 *----------------------------------------------------------------------------*
 |  Plotting Hamiltonian in WF basis          :                 T             |
 *----------------------------------------------------------------------------*
 Time to read parameters        0.049 (sec)

 *---------------------------------- K-MESH ----------------------------------*
 +----------------------------------------------------------------------------+
 |                    Distance to Nearest-Neighbour Shells                    |
 |                    ------------------------------------                    |
 |          Shell             Distance (Ang^-1)          Multiplicity         |
 |          -----             -----------------          ------------         |
 |             1                   0.255900                      4            |
 |             2                   0.277111                      2            |
 |             3                   0.361897                      4            |
 |             4                   0.377194                      8            |
 |             5                   0.455807                      8            |
 |             6                   0.511800                      4            |
 |             7                   0.554222                      2            |
 |             8                   0.572210                      8            |
 |             9                   0.582005                      8            |
 |            10                   0.610448                      8            |
 |            11                   0.635779                     16            |
 |            12                   0.661915                      8            |
 |            13                   0.723794                      4            |
 |            14                   0.754388                      8            |
 |            15                   0.767700                      4            |
 |            16                   0.775028                      8            |
 |            17                   0.796609                     16            |
 |            18                   0.809227                      8            |
 |            19                   0.816182                      8            |
 |            20                   0.831333                      2            |
 |            21                   0.855359                     16            |
 |            22                   0.869827                      8            |
 |            23                   0.906688                      8            |
 |            24                   0.911614                      8            |
 |            25                   0.922660                      8            |
 |            26                   0.946850                      8            |
 |            27                   0.963376                     16            |
 |            28                   0.976244                      8            |
 |            29                   0.980821                     16            |
 |            30                   1.009226                     16            |
 |            31                   1.023600                      4            |
 |            32                   1.055103                      8            |
 |            33                   1.060447                      8            |
 |            34                   1.076320                     16            |
 |            35                   1.085692                      4            |
 |            36                   1.090886                     16            |
 +----------------------------------------------------------------------------+
 | The b-vectors are chosen automatically                                     |
 | The following shells are used:   1,  2                                     |
 +----------------------------------------------------------------------------+
 |                        Shell   # Nearest-Neighbours                        |
 |                        -----   --------------------                        |
 |                          1               4                                 |
 |                          2               2                                 |
 +----------------------------------------------------------------------------+
 | Completeness relation is fully satisfied [Eq. (B1), PRB 56, 12847 (1997)]  |
 +----------------------------------------------------------------------------+
 |                  b_k Vectors (Ang^-1) and Weights (Ang^2)                  |
 |                  ----------------------------------------                  |
 |            No.         b_k(x)      b_k(y)      b_k(z)        w_b           |
 |            ---        --------------------------------     --------        |
 |             1         0.000000    0.255900    0.000000     7.635361        |
 |             2         0.000000   -0.255900    0.000000     7.635361        |
 |             3         0.255900    0.000000    0.000000     7.635361        |
 |             4        -0.255900    0.000000    0.000000     7.635361        |
 |             5         0.000000    0.000000    0.277111     6.511228        |
 |             6         0.000000    0.000000   -0.277111     6.511228        |
 +----------------------------------------------------------------------------+
 |                           b_k Directions (Ang^-1)                          |
 |                           -----------------------                          |
 |            No.           x           y           z                         |
 |            ---        --------------------------------                     |
 |             1         0.000000    0.255900    0.000000                     |
 |             2         0.255900    0.000000    0.000000                     |
 |             3         0.000000    0.000000    0.277111                     |
 +----------------------------------------------------------------------------+
  
 Time to get kmesh              0.213 (sec)
 *============================================================================*
 |                              MEMORY ESTIMATE                               |
 |         Maximum RAM allocated during each phase of the calculation         |
 *============================================================================*
 |                        Disentanglement          539.76 Mb                  |
 |                            Wannierise:          182.44 Mb                  |
 |                          plot_wannier:          182.44 Mb                  |
 *----------------------------------------------------------------------------*
  
 Starting a new Wannier90 calculation ...


 Reading overlaps from pwscf.mmn    : Mmn created by mmn.py

 Reading projections from pwscf.amn : Amn created by amn.py

 Time to read overlaps         13.905 (sec)

 *------------------------------- DISENTANGLE --------------------------------*
 +----------------------------------------------------------------------------+
 |                              Energy  Windows                               |
 |                              ---------------                               |
 |                   Outer:    7.50058  to   80.47300  (eV)                   |
 |                   Inner: **********  to   20.96270  (eV)                   |
 +----------------------------------------------------------------------------+
   Number of target bands to extract:   36

                   Unitarised projection of Wannier functions                  
                   ------------------------------------------                  
   A_mn = <psi_m|g_n> --> S = A.A^+ --> U = S^-1/2.A
   In dis_project... done
   Using an inner window (linner = T)
   In dis_proj_froz... done

                   Extraction of optimally-connected subspace                  
                   ------------------------------------------                  
 +---------------------------------------------------------------------+<-- DIS
 |  Iter     Omega_I(i-1)      Omega_I(i)      Delta (frac.)    Time   |<-- DIS
 +---------------------------------------------------------------------+<-- DIS
       1      27.32892062      25.42810414       7.475E-02      0.00    <-- DIS
       2      26.19670016      24.90908806       5.169E-02      0.08    <-- DIS
       3      25.48741870      24.55382392       3.802E-02      0.16    <-- DIS
       4      24.97021200      24.28403580       2.826E-02      0.24    <-- DIS
       5      24.58714723      24.07098699       2.144E-02      0.32    <-- DIS
       6      24.29661759      23.89815976       1.667E-02      0.40    <-- DIS
       7      24.07053299      23.75501723       1.328E-02      0.48    <-- DIS
       8      23.89018958      23.63447647       1.082E-02      0.57    <-- DIS
       9      23.74308452      23.53158551       8.988E-03      0.65    <-- DIS
      10      23.62074681      23.44276756       7.592E-03      0.73    <-- DIS
      11      23.51732571      23.36536687       6.504E-03      0.81    <-- DIS
      12      23.42868819      23.29736467       5.637E-03      0.89    <-- DIS
      13      23.35184408      23.23719537       4.934E-03      0.97    <-- DIS
      14      23.28457810      23.18362379       4.355E-03      1.05    <-- DIS
      15      23.22521171      23.13566093       3.871E-03      1.13    <-- DIS
      16      23.17244667      23.09250467       3.462E-03      1.21    <-- DIS
      17      23.12526025      23.05349720       3.113E-03      1.29    <-- DIS
      18      23.08283372      23.01809370       2.813E-03      1.37    <-- DIS
      19      23.04450244      22.98583905       2.552E-03      1.45    <-- DIS
      20      23.00972027      22.95635004       2.325E-03      1.53    <-- DIS
      21      22.97803373      22.92930186       2.125E-03      1.61    <-- DIS
      22      22.94906283      22.90441739       1.949E-03      1.69    <-- DIS
      23      22.92248657      22.88145890       1.793E-03      1.77    <-- DIS
      24      22.89803186      22.86022133       1.654E-03      1.85    <-- DIS
      25      22.87546492      22.84052703       1.530E-03      1.93    <-- DIS
      26      22.85458444      22.82222132       1.418E-03      2.01    <-- DIS
      27      22.83521618      22.80516904       1.318E-03      2.09    <-- DIS
      28      22.81720864      22.78925158       1.227E-03      2.17    <-- DIS
      29      22.80042946      22.77436449       1.144E-03      2.25    <-- DIS
      30      22.78476260      22.76041548       1.070E-03      2.33    <-- DIS
      31      22.77010589      22.74732274       1.002E-03      2.41    <-- DIS
      32      22.75636908      22.73501353       9.393E-04      2.49    <-- DIS
      33      22.74347218      22.72342297       8.823E-04      2.57    <-- DIS
      34      22.73134406      22.71249304       8.300E-04      2.65    <-- DIS
      35      22.71992129      22.70217173       7.818E-04      2.73    <-- DIS
      36      22.70914715      22.69241227       7.375E-04      2.81    <-- DIS
      37      22.69897076      22.68317252       6.965E-04      2.89    <-- DIS
      38      22.68934639      22.67441443       6.585E-04      2.97    <-- DIS
      39      22.68023281      22.66610354       6.234E-04      3.05    <-- DIS
      40      22.67159278      22.65820859       5.907E-04      3.13    <-- DIS
      41      22.66339257      22.65070115       5.603E-04      3.21    <-- DIS
      42      22.65560158      22.64355532       5.320E-04      3.29    <-- DIS
      43      22.64819198      22.63674748       5.056E-04      3.37    <-- DIS
      44      22.64113838      22.63025599       4.809E-04      3.45    <-- DIS
      45      22.63441763      22.62406105       4.578E-04      3.54    <-- DIS
      46      22.62800853      22.61814447       4.361E-04      3.62    <-- DIS
      47      22.62189164      22.61248953       4.158E-04      3.70    <-- DIS
      48      22.61604914      22.60708081       3.967E-04      3.78    <-- DIS
      49      22.61046460      22.60190411       3.788E-04      3.86    <-- DIS
      50      22.60512289      22.59694628       3.618E-04      3.94    <-- DIS
      51      22.60001006      22.59219516       3.459E-04      4.02    <-- DIS
      52      22.59511320      22.58763949       3.309E-04      4.10    <-- DIS
      53      22.59042035      22.58326878       3.167E-04      4.18    <-- DIS
      54      22.58592043      22.57907332       3.033E-04      4.26    <-- DIS
      55      22.58160313      22.57504404       2.905E-04      4.34    <-- DIS
      56      22.57745889      22.57117248       2.785E-04      4.42    <-- DIS
      57      22.57347879      22.56745077       2.671E-04      4.50    <-- DIS
      58      22.56965450      22.56387152       2.563E-04      4.58    <-- DIS
      59      22.56597825      22.56042784       2.460E-04      4.66    <-- DIS
      60      22.56244278      22.55711326       2.363E-04      4.74    <-- DIS
      61      22.55904129      22.55392171       2.270E-04      4.82    <-- DIS
      62      22.55576740      22.55084750       2.182E-04      4.90    <-- DIS
      63      22.55261512      22.54788526       2.098E-04      4.98    <-- DIS
      64      22.54957883      22.54502994       2.018E-04      5.06    <-- DIS
      65      22.54665324      22.54227681       1.941E-04      5.14    <-- DIS
      66      22.54383337      22.53962136       1.869E-04      5.22    <-- DIS
      67      22.54111453      22.53705938       1.799E-04      5.30    <-- DIS
      68      22.53849229      22.53458685       1.733E-04      5.39    <-- DIS
      69      22.53596247      22.53220000       1.670E-04      5.47    <-- DIS
      70      22.53352111      22.52989524       1.609E-04      5.55    <-- DIS
      71      22.53116448      22.52766918       1.552E-04      5.63    <-- DIS
      72      22.52888902      22.52551860       1.496E-04      5.71    <-- DIS
      73      22.52669140      22.52344045       1.443E-04      5.79    <-- DIS
      74      22.52456842      22.52143182       1.393E-04      5.87    <-- DIS
      75      22.52251706      22.51948995       1.344E-04      5.95    <-- DIS
      76      22.52053445      22.51761223       1.298E-04      6.03    <-- DIS
      77      22.51861787      22.51579616       1.253E-04      6.11    <-- DIS
      78      22.51676471      22.51403935       1.211E-04      6.19    <-- DIS
      79      22.51497251      22.51233956       1.170E-04      6.27    <-- DIS
      80      22.51323892      22.51069460       1.130E-04      6.35    <-- DIS
      81      22.51156168      22.50910243       1.093E-04      6.43    <-- DIS
      82      22.50993867      22.50756107       1.056E-04      6.51    <-- DIS
      83      22.50836785      22.50606865       1.022E-04      6.59    <-- DIS
      84      22.50684726      22.50462337       9.882E-05      6.67    <-- DIS
      85      22.50537504      22.50322352       9.561E-05      6.75    <-- DIS
      86      22.50394942      22.50186744       9.252E-05      6.83    <-- DIS
      87      22.50256869      22.50055356       8.956E-05      6.91    <-- DIS
      88      22.50123123      22.49928039       8.671E-05      6.99    <-- DIS
      89      22.49993548      22.49804648       8.396E-05      7.07    <-- DIS
      90      22.49867995      22.49685044       8.132E-05      7.15    <-- DIS
      91      22.49746321      22.49569096       7.878E-05      7.23    <-- DIS
      92      22.49628389      22.49456676       7.634E-05      7.31    <-- DIS
      93      22.49514068      22.49347661       7.398E-05      7.39    <-- DIS
      94      22.49403232      22.49241936       7.171E-05      7.47    <-- DIS
      95      22.49295761      22.49139388       6.953E-05      7.55    <-- DIS
      96      22.49191538      22.49039908       6.742E-05      7.63    <-- DIS
      97      22.49090452      22.48943394       6.539E-05      7.71    <-- DIS
      98      22.48992397      22.48849745       6.343E-05      7.79    <-- DIS
      99      22.48897270      22.48758866       6.155E-05      7.87    <-- DIS
     100      22.48804972      22.48670664       5.973E-05      7.95    <-- DIS
     101      22.48715408      22.48585052       5.797E-05      8.03    <-- DIS
     102      22.48628487      22.48501943       5.628E-05      8.11    <-- DIS
     103      22.48544122      22.48421256       5.465E-05      8.19    <-- DIS
     104      22.48462227      22.48342911       5.307E-05      8.27    <-- DIS
     105      22.48382723      22.48266834       5.155E-05      8.36    <-- DIS
     106      22.48305530      22.48192949       5.008E-05      8.44    <-- DIS
     107      22.48230574      22.48121188       4.866E-05      8.52    <-- DIS
     108      22.48157781      22.48051481       4.729E-05      8.60    <-- DIS
     109      22.48087083      22.47983764       4.596E-05      8.68    <-- DIS
     110      22.48018411      22.47917972       4.468E-05      8.76    <-- DIS
     111      22.47951702      22.47854046       4.344E-05      8.84    <-- DIS
     112      22.47886891      22.47791926       4.225E-05      8.92    <-- DIS
     113      22.47823921      22.47731556       4.109E-05      9.00    <-- DIS
     114      22.47762731      22.47672881       3.997E-05      9.08    <-- DIS
     115      22.47703266      22.47615848       3.889E-05      9.16    <-- DIS
     116      22.47645473      22.47560407       3.785E-05      9.24    <-- DIS
     117      22.47589298      22.47506508       3.684E-05      9.33    <-- DIS
     118      22.47534692      22.47454103       3.586E-05      9.41    <-- DIS
     119      22.47481606      22.47403148       3.491E-05      9.49    <-- DIS
     120      22.47429993      22.47353597       3.399E-05      9.57    <-- DIS
     121      22.47379808      22.47305408       3.311E-05      9.65    <-- DIS
     122      22.47331006      22.47258539       3.225E-05      9.73    <-- DIS
     123      22.47283547      22.47212952       3.141E-05      9.82    <-- DIS
     124      22.47237388      22.47168606       3.061E-05      9.90    <-- DIS
     125      22.47192491      22.47125465       2.983E-05      9.98    <-- DIS
     126      22.47148818      22.47083492       2.907E-05     10.06    <-- DIS
     127      22.47106331      22.47042654       2.834E-05     10.14    <-- DIS
     128      22.47064995      22.47002916       2.763E-05     10.22    <-- DIS
     129      22.47024775      22.46964245       2.694E-05     10.30    <-- DIS
     130      22.46985639      22.46926610       2.627E-05     10.38    <-- DIS
     131      22.46947555      22.46889981       2.562E-05     10.46    <-- DIS
     132      22.46910490      22.46854328       2.500E-05     10.54    <-- DIS
     133      22.46874415      22.46819622       2.439E-05     10.62    <-- DIS
     134      22.46839301      22.46785837       2.380E-05     10.70    <-- DIS
     135      22.46805120      22.46752944       2.322E-05     10.78    <-- DIS
     136      22.46771844      22.46720919       2.267E-05     10.86    <-- DIS
     137      22.46739447      22.46689735       2.213E-05     10.94    <-- DIS
     138      22.46707904      22.46659370       2.160E-05     11.02    <-- DIS
     139      22.46677190      22.46629799       2.109E-05     11.10    <-- DIS
     140      22.46647280      22.46601000       2.060E-05     11.18    <-- DIS
     141      22.46618152      22.46572950       2.012E-05     11.26    <-- DIS
     142      22.46589784      22.46545628       1.965E-05     11.34    <-- DIS
     143      22.46562153      22.46519015       1.920E-05     11.42    <-- DIS
     144      22.46535238      22.46493088       1.876E-05     11.50    <-- DIS
     145      22.46509020      22.46467830       1.834E-05     11.58    <-- DIS
     146      22.46483478      22.46443221       1.792E-05     11.66    <-- DIS
     147      22.46458593      22.46419243       1.752E-05     11.74    <-- DIS
     148      22.46434347      22.46395879       1.712E-05     11.82    <-- DIS
     149      22.46410722      22.46373111       1.674E-05     11.90    <-- DIS
     150      22.46387700      22.46350923       1.637E-05     11.98    <-- DIS
     151      22.46365265      22.46329298       1.601E-05     12.06    <-- DIS
     152      22.46343400      22.46308221       1.566E-05     12.14    <-- DIS
     153      22.46322089      22.46287677       1.532E-05     12.22    <-- DIS
     154      22.46301317      22.46267651       1.499E-05     12.30    <-- DIS
     155      22.46281069      22.46248129       1.466E-05     12.38    <-- DIS
     156      22.46261330      22.46229097       1.435E-05     12.46    <-- DIS
     157      22.46242087      22.46210541       1.404E-05     12.54    <-- DIS
     158      22.46223326      22.46192450       1.375E-05     12.62    <-- DIS
     159      22.46205034      22.46174809       1.346E-05     12.70    <-- DIS
     160      22.46187198      22.46157607       1.317E-05     12.78    <-- DIS
     161      22.46169805      22.46140833       1.290E-05     12.86    <-- DIS
     162      22.46152843      22.46124473       1.263E-05     12.94    <-- DIS
     163      22.46136302      22.46108518       1.237E-05     13.02    <-- DIS
     164      22.46120168      22.46092956       1.212E-05     13.10    <-- DIS
     165      22.46104433      22.46077777       1.187E-05     13.18    <-- DIS
     166      22.46089084      22.46062971       1.163E-05     13.26    <-- DIS
     167      22.46074111      22.46048527       1.139E-05     13.34    <-- DIS
     168      22.46059505      22.46034436       1.116E-05     13.42    <-- DIS
     169      22.46045255      22.46020688       1.094E-05     13.50    <-- DIS
     170      22.46031352      22.46007276       1.072E-05     13.59    <-- DIS
     171      22.46017788      22.45994188       1.051E-05     13.67    <-- DIS
     172      22.46004551      22.45981418       1.030E-05     13.75    <-- DIS
     173      22.45991636      22.45968957       1.010E-05     13.83    <-- DIS
     174      22.45979032      22.45956796       9.900E-06     13.91    <-- DIS
     175      22.45966731      22.45944928       9.708E-06     13.99    <-- DIS
     176      22.45954726      22.45933345       9.520E-06     14.07    <-- DIS
     177      22.45943009      22.45922040       9.336E-06     14.15    <-- DIS
     178      22.45931572      22.45911005       9.157E-06     14.23    <-- DIS
     179      22.45920408      22.45900234       8.983E-06     14.31    <-- DIS
     180      22.45909511      22.45889719       8.812E-06     14.39    <-- DIS
     181      22.45898872      22.45879455       8.646E-06     14.47    <-- DIS
     182      22.45888485      22.45869433       8.483E-06     14.55    <-- DIS
     183      22.45878344      22.45859649       8.324E-06     14.63    <-- DIS
     184      22.45868443      22.45850097       8.169E-06     14.71    <-- DIS
     185      22.45858775      22.45840769       8.018E-06     14.79    <-- DIS
     186      22.45849335      22.45831661       7.870E-06     14.87    <-- DIS
     187      22.45840116      22.45822767       7.725E-06     14.95    <-- DIS
     188      22.45831112      22.45814081       7.584E-06     15.03    <-- DIS
     189      22.45822320      22.45805599       7.445E-06     15.11    <-- DIS
     190      22.45813732      22.45797314       7.310E-06     15.19    <-- DIS
     191      22.45805344      22.45789223       7.178E-06     15.27    <-- DIS
     192      22.45797150      22.45781319       7.049E-06     15.35    <-- DIS
     193      22.45789147      22.45773599       6.923E-06     15.43    <-- DIS
     194      22.45781329      22.45766058       6.800E-06     15.51    <-- DIS
     195      22.45773691      22.45758691       6.679E-06     15.59    <-- DIS
     196      22.45766229      22.45751494       6.561E-06     15.67    <-- DIS
     197      22.45758938      22.45744463       6.446E-06     15.75    <-- DIS
     198      22.45751814      22.45737593       6.333E-06     15.83    <-- DIS
     199      22.45744854      22.45730881       6.222E-06     15.91    <-- DIS
     200      22.45738052      22.45724322       6.114E-06     15.99    <-- DIS

     <<< Warning: Maximum number of disentanglement iterations reached >>>
          <<< Disentanglement convergence criteria not satisfied >>>

        Final Omega_I    22.45724322 (Ang^2)

 +----------------------------------------------------------------------------+

 Time to disentangle bands     18.946 (sec)

 done

 
 *------------------------------- WANNIERISE ---------------------------------*
 +--------------------------------------------------------------------+<-- CONV
 | Iter  Delta Spread     RMS Gradient      Spread (Ang^2)      Time  |<-- CONV
 +--------------------------------------------------------------------+<-- CONV
 
 ------------------------------------------------------------------------------
 Initial State
  WF centre and spread    1  (  0.000000, -0.000000, -0.000000 )     1.44792178
  WF centre and spread    2  ( -0.000000,  0.000000,  0.000000 )     1.44792178
  WF centre and spread    3  ( -0.000000, -0.000000, -0.000000 )     1.41835001
  WF centre and spread    4  (  0.000000,  0.000000,  0.000000 )     1.41835001
  WF centre and spread    5  ( -0.000000, -0.000000,  0.000000 )     1.44109283
  WF centre and spread    6  (  0.000000,  0.000000,  0.000000 )     1.44109283
  WF centre and spread    7  (  0.000000,  0.000000, -0.000000 )     1.44109291
  WF centre and spread    8  ( -0.000000, -0.000000, -0.000000 )     1.44109291
  WF centre and spread    9  ( -0.000000, -0.000000,  0.000000 )     0.50060455
  WF centre and spread   10  (  0.000000,  0.000000,  0.000000 )     0.50060455
  WF centre and spread   11  (  0.000000, -0.000000, -0.000000 )     0.46770336
  WF centre and spread   12  ( -0.000000,  0.000000, -0.000000 )     0.46770336
  WF centre and spread   13  ( -0.000000, -0.000000,  0.000000 )     0.46770336
  WF centre and spread   14  (  0.000000,  0.000000,  0.000000 )     0.46770336
  WF centre and spread   15  (  0.000000, -0.000000,  0.000000 )     0.49617178
  WF centre and spread   16  ( -0.000000,  0.000000,  0.000000 )     0.49617178
  WF centre and spread   17  ( -0.000000, -0.000000,  0.000000 )     0.48818390
  WF centre and spread   18  (  0.000000,  0.000000,  0.000000 )     0.48818390
  WF centre and spread   19  (  1.364072,  1.364071,  1.889492 )     1.74764483
  WF centre and spread   20  (  1.364072,  1.364072,  1.889492 )     1.74764483
  WF centre and spread   21  (  1.364072,  1.364071,  1.889492 )     1.74536052
  WF centre and spread   22  (  1.364072,  1.364072,  1.889492 )     1.74536052
  WF centre and spread   23  (  1.364072,  1.364071,  1.889492 )     1.69652417
  WF centre and spread   24  (  1.364072,  1.364072,  1.889492 )     1.69652417
  WF centre and spread   25  (  1.364072,  1.364071,  1.889492 )     1.69652486
  WF centre and spread   26  (  1.364072,  1.364072,  1.889492 )     1.69652486
  WF centre and spread   27  (  1.364072,  1.364071,  1.889492 )     0.86498330
  WF centre and spread   28  (  1.364072,  1.364072,  1.889492 )     0.86498330
  WF centre and spread   29  (  1.364072,  1.364071,  1.889492 )     0.85831481
  WF centre and spread   30  (  1.364072,  1.364072,  1.889492 )     0.85831481
  WF centre and spread   31  (  1.364072,  1.364071,  1.889492 )     0.85831489
  WF centre and spread   32  (  1.364072,  1.364072,  1.889492 )     0.85831489
  WF centre and spread   33  (  1.364072,  1.364071,  1.889492 )     0.82847857
  WF centre and spread   34  (  1.364072,  1.364072,  1.889492 )     0.82847857
  WF centre and spread   35  (  1.364072,  1.364071,  1.889492 )     0.87507251
  WF centre and spread   36  (  1.364072,  1.364072,  1.889492 )     0.87507251
  Sum of centres and spreads ( 24.553287, 24.553287, 34.010856 )    38.68008592
 
      0     0.387E+02     0.0000000000       38.6800859031      17.43  <-- CONV
        O_D=      0.0002180 O_OD=     16.2226247 O_TOT=     38.6800859 <-- SPRD
 ------------------------------------------------------------------------------
 Final State
  WF centre and spread    1  (  0.000000, -0.000000, -0.000000 )     1.44792178
  WF centre and spread    2  ( -0.000000,  0.000000,  0.000000 )     1.44792178
  WF centre and spread    3  ( -0.000000, -0.000000, -0.000000 )     1.41835001
  WF centre and spread    4  (  0.000000,  0.000000,  0.000000 )     1.41835001
  WF centre and spread    5  ( -0.000000, -0.000000,  0.000000 )     1.44109283
  WF centre and spread    6  (  0.000000,  0.000000,  0.000000 )     1.44109283
  WF centre and spread    7  (  0.000000,  0.000000, -0.000000 )     1.44109291
  WF centre and spread    8  ( -0.000000, -0.000000, -0.000000 )     1.44109291
  WF centre and spread    9  ( -0.000000, -0.000000,  0.000000 )     0.50060455
  WF centre and spread   10  (  0.000000,  0.000000,  0.000000 )     0.50060455
  WF centre and spread   11  (  0.000000, -0.000000, -0.000000 )     0.46770336
  WF centre and spread   12  ( -0.000000,  0.000000, -0.000000 )     0.46770336
  WF centre and spread   13  ( -0.000000, -0.000000,  0.000000 )     0.46770336
  WF centre and spread   14  (  0.000000,  0.000000,  0.000000 )     0.46770336
  WF centre and spread   15  (  0.000000, -0.000000,  0.000000 )     0.49617178
  WF centre and spread   16  ( -0.000000,  0.000000,  0.000000 )     0.49617178
  WF centre and spread   17  ( -0.000000, -0.000000,  0.000000 )     0.48818390
  WF centre and spread   18  (  0.000000,  0.000000,  0.000000 )     0.48818390
  WF centre and spread   19  (  1.364072,  1.364071,  1.889492 )     1.74764483
  WF centre and spread   20  (  1.364072,  1.364072,  1.889492 )     1.74764483
  WF centre and spread   21  (  1.364072,  1.364071,  1.889492 )     1.74536052
  WF centre and spread   22  (  1.364072,  1.364072,  1.889492 )     1.74536052
  WF centre and spread   23  (  1.364072,  1.364071,  1.889492 )     1.69652417
  WF centre and spread   24  (  1.364072,  1.364072,  1.889492 )     1.69652417
  WF centre and spread   25  (  1.364072,  1.364071,  1.889492 )     1.69652486
  WF centre and spread   26  (  1.364072,  1.364072,  1.889492 )     1.69652486
  WF centre and spread   27  (  1.364072,  1.364071,  1.889492 )     0.86498330
  WF centre and spread   28  (  1.364072,  1.364072,  1.889492 )     0.86498330
  WF centre and spread   29  (  1.364072,  1.364071,  1.889492 )     0.85831481
  WF centre and spread   30  (  1.364072,  1.364072,  1.889492 )     0.85831481
  WF centre and spread   31  (  1.364072,  1.364071,  1.889492 )     0.85831489
  WF centre and spread   32  (  1.364072,  1.364072,  1.889492 )     0.85831489
  WF centre and spread   33  (  1.364072,  1.364071,  1.889492 )     0.82847857
  WF centre and spread   34  (  1.364072,  1.364072,  1.889492 )     0.82847857
  WF centre and spread   35  (  1.364072,  1.364071,  1.889492 )     0.87507251
  WF centre and spread   36  (  1.364072,  1.364072,  1.889492 )     0.87507251
  Sum of centres and spreads ( 24.553287, 24.553287, 34.010856 )    38.68008592
 
         Spreads (Ang^2)       Omega I      =    22.457243219
        ================       Omega D      =     0.000217972
                               Omega OD     =    16.222624713
    Final Spread (Ang^2)       Omega Total  =    38.680085903
 ------------------------------------------------------------------------------
 Time for wannierise            0.104 (sec)

 done

 *---------------------------------------------------------------------------*
 |                               PLOTTING                                    |
 *---------------------------------------------------------------------------*
 
 
 Calculating interpolated band-structure
 
 Time to calculate interpolated band structure      32.581 (sec)
 
 Time for plotting             91.540 (sec)
 Total Execution Time         124.894 (sec)

 *===========================================================================*
 |                             TIMING INFORMATION                            |
 *===========================================================================*
 |    Tag                                                Ncalls      Time (s)|
 |---------------------------------------------------------------------------|
 |kmesh: get                                        :         1         0.213|
 |overlap: allocate                                 :         1         0.005|
 |overlap: read                                     :         1        13.899|
 |dis: main                                         :         1        18.946|
 |wann: main                                        :         1         0.104|
 |plot: main                                        :         1        91.540|
 *---------------------------------------------------------------------------*
 
 All done: wannier90 exiting
