
     Program PWSCF v.7.0 starts on 23May2024 at 15:53:42 

     This program is part of the open-source Quantum ESPRESSO suite
     for quantum simulation of materials; please cite
         "P. Giannozzi et al., J. Phys.:Condens. Matter 21 395502 (2009);
         "P. Giannozzi et al., J. Phys.:Condens. Matter 29 465901 (2017);
         "P. Giannozzi et al., J. Chem. Phys. 152 154105 (2020);
          URL http://www.quantum-espresso.org", 
     in publications or presentations arising from this work. More details at
     http://www.quantum-espresso.org/quote

     Parallel version (MPI), running on    22 processors

     MPI processes distributed on     1 nodes
     R & G space division:  proc/nbgrp/npool/nimage =      22
     188327 MiB available memory on the printing compute node when the environment starts
 
     Waiting for input...
     Reading input from standard input

     Current dimensions of program PWSCF are:
     Max number of different atomic species (ntypx) = 10
     Max number of k-points (npk) =  40000
     Max angular momentum in pseudopotentials (lmaxx) =  4
     file Ni.pbe-n-rrkjus_psl.0.1.UPF: wavefunction(s)  3D renormalized

     Fixed quantization axis for GGA:     0.000000    0.000000    1.000000
     Message from routine setup:
     At least one non s.o. pseudo

     Subspace diagonalization in iterative solution of the eigenvalue problem:
     a serial algorithm will be used

 
     Parallelization info
     --------------------
     sticks:   dense  smooth     PW     G-vecs:    dense   smooth      PW
     Min          63      20      6                 2543      474      82
     Max          64      22      7                 2548      477      87
     Sum        1389     457    145                55993    10451    1843
 
     Using Slab Decomposition
 


     bravais-lattice index     =            6
     lattice parameter (alat)  =       4.7368  a.u.
     unit-cell volume          =     151.8494 (a.u.)^3
     number of atoms/cell      =            2
     number of atomic types    =            2
     number of electrons       =        26.00
     number of Kohn-Sham states=           58
     kinetic-energy cutoff     =      64.0000  Ry
     charge density cutoff     =     782.0000  Ry
     Exchange-correlation= PBE
                           (   1   4   3   4   0   0   0)
     Noncollinear calculation with spin-orbit


     celldm(1)=   4.736808  celldm(2)=   0.000000  celldm(3)=   1.428748
     celldm(4)=   0.000000  celldm(5)=   0.000000  celldm(6)=   0.000000

     crystal axes: (cart. coord. in units of alat)
               a(1) = (   1.000000   0.000000   0.000000 )  
               a(2) = (   0.000000   1.000000   0.000000 )  
               a(3) = (   0.000000   0.000000   1.428748 )  

     reciprocal axes: (cart. coord. in units 2 pi/alat)
               b(1) = (  1.000000  0.000000  0.000000 )  
               b(2) = (  0.000000  1.000000  0.000000 )  
               b(3) = (  0.000000  0.000000  0.699913 )  


     PseudoPot. # 1 for Fe read from file:
     /home2/koretsune/PWSCF/pseudo_psl031/Fe.pbe-spn-rrkjus_psl.0.2.1.UPF
     MD5 check sum: ffcf0347a832ff25cbd6031c7d0b600f
     Pseudo is Ultrasoft + core correction, Zval = 16.0
     Generated using "atomic" code by A. Dal Corso  v.5.0.99 svn rev. 10869
     Using radial grid of 1191 points,  6 beta functions with: 
                l(1) =   0
                l(2) =   0
                l(3) =   1
                l(4) =   1
                l(5) =   2
                l(6) =   2
     Q(r) pseudized with 0 coefficients 


     PseudoPot. # 2 for Ni read from file:
     /home2/koretsune/PWSCF/pseudo_psl031/Ni.pbe-n-rrkjus_psl.0.1.UPF
     MD5 check sum: 105609196ad94f97f23a2e8b9db0d307
     Pseudo is Ultrasoft + core correction, Zval = 10.0
     Generated using "atomic" code by A. Dal Corso  v.5.0.99 svn rev. 10869
     Using radial grid of 1195 points,  6 beta functions with: 
                l(1) =   0
                l(2) =   0
                l(3) =   1
                l(4) =   1
                l(5) =   2
                l(6) =   2
     Q(r) pseudized with 0 coefficients 


     atomic species   valence    mass     pseudopotential
        Fe            16.00    55.84500     Fe( 1.00)
        Ni            10.00    58.69340     Ni( 1.00)

     16 Sym. Ops., with inversion, found


                                    s                        frac. trans.

      isym =  1     identity                                     

 Time Reversal            0
 cryst.   s( 1) = (     1          0          0      )
                  (     0          1          0      )
                  (     0          0          1      )

 cart.    s( 1) = (  1.0000000  0.0000000  0.0000000 )
                  (  0.0000000  1.0000000  0.0000000 )
                  (  0.0000000  0.0000000  1.0000000 )


      isym =  2     180 deg rotation - cart. axis [0,0,1]        

 Time Reversal            0
 cryst.   s( 2) = (    -1          0          0      )
                  (     0         -1          0      )
                  (     0          0          1      )

 cart.    s( 2) = ( -1.0000000  0.0000000  0.0000000 )
                  (  0.0000000 -1.0000000  0.0000000 )
                  (  0.0000000  0.0000000  1.0000000 )


      isym =  3     180 deg rotation - cart. axis [0,1,0]        

 Time Reversal            1
 cryst.   s( 3) = (    -1          0          0      )
                  (     0          1          0      )
                  (     0          0         -1      )

 cart.    s( 3) = ( -1.0000000  0.0000000  0.0000000 )
                  (  0.0000000  1.0000000  0.0000000 )
                  (  0.0000000  0.0000000 -1.0000000 )


      isym =  4     180 deg rotation - cart. axis [1,0,0]        

 Time Reversal            1
 cryst.   s( 4) = (     1          0          0      )
                  (     0         -1          0      )
                  (     0          0         -1      )

 cart.    s( 4) = (  1.0000000  0.0000000  0.0000000 )
                  (  0.0000000 -1.0000000  0.0000000 )
                  (  0.0000000  0.0000000 -1.0000000 )


      isym =  5     180 deg rotation - cart. axis [1,1,0]        

 Time Reversal            1
 cryst.   s( 5) = (     0          1          0      )
                  (     1          0          0      )
                  (     0          0         -1      )

 cart.    s( 5) = (  0.0000000  1.0000000  0.0000000 )
                  (  1.0000000  0.0000000  0.0000000 )
                  (  0.0000000  0.0000000 -1.0000000 )


      isym =  6     180 deg rotation - cart. axis [1,-1,0]       

 Time Reversal            1
 cryst.   s( 6) = (     0         -1          0      )
                  (    -1          0          0      )
                  (     0          0         -1      )

 cart.    s( 6) = (  0.0000000 -1.0000000  0.0000000 )
                  ( -1.0000000  0.0000000  0.0000000 )
                  (  0.0000000  0.0000000 -1.0000000 )


      isym =  7      90 deg rotation - cart. axis [0,0,-1]       

 Time Reversal            0
 cryst.   s( 7) = (     0         -1          0      )
                  (     1          0          0      )
                  (     0          0          1      )

 cart.    s( 7) = (  0.0000000  1.0000000  0.0000000 )
                  ( -1.0000000  0.0000000  0.0000000 )
                  (  0.0000000  0.0000000  1.0000000 )


      isym =  8      90 deg rotation - cart. axis [0,0,1]        

 Time Reversal            0
 cryst.   s( 8) = (     0          1          0      )
                  (    -1          0          0      )
                  (     0          0          1      )

 cart.    s( 8) = (  0.0000000 -1.0000000  0.0000000 )
                  (  1.0000000  0.0000000  0.0000000 )
                  (  0.0000000  0.0000000  1.0000000 )


      isym =  9     inversion                                    

 Time Reversal            0
 cryst.   s( 9) = (    -1          0          0      )
                  (     0         -1          0      )
                  (     0          0         -1      )

 cart.    s( 9) = ( -1.0000000  0.0000000  0.0000000 )
                  (  0.0000000 -1.0000000  0.0000000 )
                  (  0.0000000  0.0000000 -1.0000000 )


      isym = 10     inv. 180 deg rotation - cart. axis [0,0,1]   

 Time Reversal            0
 cryst.   s(10) = (     1          0          0      )
                  (     0          1          0      )
                  (     0          0         -1      )

 cart.    s(10) = (  1.0000000  0.0000000  0.0000000 )
                  (  0.0000000  1.0000000  0.0000000 )
                  (  0.0000000  0.0000000 -1.0000000 )


      isym = 11     inv. 180 deg rotation - cart. axis [0,1,0]   

 Time Reversal            1
 cryst.   s(11) = (     1          0          0      )
                  (     0         -1          0      )
                  (     0          0          1      )

 cart.    s(11) = (  1.0000000  0.0000000  0.0000000 )
                  (  0.0000000 -1.0000000  0.0000000 )
                  (  0.0000000  0.0000000  1.0000000 )


      isym = 12     inv. 180 deg rotation - cart. axis [1,0,0]   

 Time Reversal            1
 cryst.   s(12) = (    -1          0          0      )
                  (     0          1          0      )
                  (     0          0          1      )

 cart.    s(12) = ( -1.0000000  0.0000000  0.0000000 )
                  (  0.0000000  1.0000000  0.0000000 )
                  (  0.0000000  0.0000000  1.0000000 )


      isym = 13     inv. 180 deg rotation - cart. axis [1,1,0]   

 Time Reversal            1
 cryst.   s(13) = (     0         -1          0      )
                  (    -1          0          0      )
                  (     0          0          1      )

 cart.    s(13) = (  0.0000000 -1.0000000  0.0000000 )
                  ( -1.0000000  0.0000000  0.0000000 )
                  (  0.0000000  0.0000000  1.0000000 )


      isym = 14     inv. 180 deg rotation - cart. axis [1,-1,0]  

 Time Reversal            1
 cryst.   s(14) = (     0          1          0      )
                  (     1          0          0      )
                  (     0          0          1      )

 cart.    s(14) = (  0.0000000  1.0000000  0.0000000 )
                  (  1.0000000  0.0000000  0.0000000 )
                  (  0.0000000  0.0000000  1.0000000 )


      isym = 15     inv.  90 deg rotation - cart. axis [0,0,-1]  

 Time Reversal            0
 cryst.   s(15) = (     0          1          0      )
                  (    -1          0          0      )
                  (     0          0         -1      )

 cart.    s(15) = (  0.0000000 -1.0000000  0.0000000 )
                  (  1.0000000  0.0000000  0.0000000 )
                  (  0.0000000  0.0000000 -1.0000000 )


      isym = 16     inv.  90 deg rotation - cart. axis [0,0,1]   

 Time Reversal            0
 cryst.   s(16) = (     0         -1          0      )
                  (     1          0          0      )
                  (     0          0         -1      )

 cart.    s(16) = (  0.0000000  1.0000000  0.0000000 )
                  ( -1.0000000  0.0000000  0.0000000 )
                  (  0.0000000  0.0000000 -1.0000000 )


     the magnetic double point group is D_4h(4/mmm) [C_4h (4/m) ]
     using the double point group C_4h (4/m) 
     there are 16 classes and  8 irreducible representations
     the character table:

       E     -E    C4    -C4   C2    -C2   C4^3  -C4^3 i     -i    S4^3  -S4^3
                                                                              
G_5+   1.00 -1.00  0.71 -0.71  0.00  0.00  0.71 -0.71  1.00 -1.00  0.71 -0.71
G_6+   1.00 -1.00  0.71 -0.71  0.00  0.00  0.71 -0.71  1.00 -1.00  0.71 -0.71
G_7+   1.00 -1.00 -0.71  0.71  0.00  0.00 -0.71  0.71  1.00 -1.00 -0.71  0.71
G_8+   1.00 -1.00 -0.71  0.71  0.00  0.00 -0.71  0.71  1.00 -1.00 -0.71  0.71
G_5-   1.00 -1.00  0.71 -0.71  0.00  0.00  0.71 -0.71 -1.00  1.00 -0.71  0.71
G_6-   1.00 -1.00  0.71 -0.71  0.00  0.00  0.71 -0.71 -1.00  1.00 -0.71  0.71
G_7-   1.00 -1.00 -0.71  0.71  0.00  0.00 -0.71  0.71 -1.00  1.00  0.71 -0.71
G_8-   1.00 -1.00 -0.71  0.71  0.00  0.00 -0.71  0.71 -1.00  1.00  0.71 -0.71

       s_h   -s_h  S4    -S4  
                              
G_5+   0.00  0.00  0.71 -0.71
G_6+   0.00  0.00  0.71 -0.71
G_7+   0.00  0.00 -0.71  0.71
G_8+   0.00  0.00 -0.71  0.71
G_5-   0.00  0.00 -0.71  0.71
G_6-   0.00  0.00 -0.71  0.71
G_7-   0.00  0.00  0.71 -0.71
G_8-   0.00  0.00  0.71 -0.71

     imaginary part

       E     -E    C4    -C4   C2    -C2   C4^3  -C4^3 i     -i    S4^3  -S4^3
                                                                              
G_5+   0.00  0.00  0.71 -0.71  1.00 -1.00 -0.71  0.71  0.00  0.00  0.71 -0.71
G_6+   0.00  0.00 -0.71  0.71 -1.00  1.00  0.71 -0.71  0.00  0.00 -0.71  0.71
G_7+   0.00  0.00 -0.71  0.71  1.00 -1.00  0.71 -0.71  0.00  0.00 -0.71  0.71
G_8+   0.00  0.00  0.71 -0.71 -1.00  1.00 -0.71  0.71  0.00  0.00  0.71 -0.71
G_5-   0.00  0.00  0.71 -0.71  1.00 -1.00 -0.71  0.71  0.00  0.00 -0.71  0.71
G_6-   0.00  0.00 -0.71  0.71 -1.00  1.00  0.71 -0.71  0.00  0.00  0.71 -0.71
G_7-   0.00  0.00 -0.71  0.71  1.00 -1.00  0.71 -0.71  0.00  0.00  0.71 -0.71
G_8-   0.00  0.00  0.71 -0.71 -1.00  1.00 -0.71  0.71  0.00  0.00 -0.71  0.71

       s_h   -s_h  S4    -S4  
                              
G_5+   1.00 -1.00 -0.71  0.71
G_6+  -1.00  1.00  0.71 -0.71
G_7+   1.00 -1.00  0.71 -0.71
G_8+  -1.00  1.00 -0.71  0.71
G_5-  -1.00  1.00  0.71 -0.71
G_6-   1.00 -1.00 -0.71  0.71
G_7-  -1.00  1.00 -0.71  0.71
G_8-   1.00 -1.00  0.71 -0.71

     the symmetry operations in each class and the name of the first element:

     E             1
          identity                                               
     -E           -1
          identity E                                             
     C4            4
           90 deg rotation - cart. axis [0,0,1]                  
     -C4          -4
           90 deg rotation - cart. axis [0,0,1] E                
     C2            2
          180 deg rotation - cart. axis [0,0,1]                  
     -C2          -2
          180 deg rotation - cart. axis [0,0,1] E                
     C4^3          3
           90 deg rotation - cart. axis [0,0,-1]                 
     -C4^3        -3
           90 deg rotation - cart. axis [0,0,-1] E               
     i             5
          inversion                                              
     -i           -5
          inversion E                                            
     S4^3          8
          inv.  90 deg rotation - cart. axis [0,0,1]             
     -S4^3        -8
          inv.  90 deg rotation - cart. axis [0,0,1] E           
     s_h           6
          inv. 180 deg rotation - cart. axis [0,0,1]             
     -s_h         -6
          inv. 180 deg rotation - cart. axis [0,0,1] E           
     S4            7
          inv.  90 deg rotation - cart. axis [0,0,-1]            
     -S4          -7
          inv.  90 deg rotation - cart. axis [0,0,-1] E          

   Cartesian axes

     site n.     atom                  positions (alat units)
         1           Fe  tau(   1) = (   0.0000000   0.0000000   0.0000000  )
         2           Ni  tau(   2) = (   0.5000000   0.5000000   0.7143741  )

   Crystallographic axes

     site n.     atom                  positions (cryst. coord.)
         1           Fe  tau(   1) = (  0.0000000  0.0000000  0.0000000  )
         2           Ni  tau(   2) = (  0.5000000  0.5000000  0.5000000  )

     number of k points=    60  Methfessel-Paxton smearing, width (Ry)=  0.0100
                       cart. coord. in units 2pi/alat
        k(    1) = (   0.0000000   0.0000000   0.0000000), wk =   0.0017637
        k(    2) = (   0.0000000   0.0000000   0.0999876), wk =   0.0035273
        k(    3) = (   0.0000000   0.0000000   0.1999753), wk =   0.0035273
        k(    4) = (   0.0000000   0.0000000   0.2999629), wk =   0.0035273
        k(    5) = (   0.0000000   0.1111111   0.0000000), wk =   0.0070547
        k(    6) = (   0.0000000   0.1111111   0.0999876), wk =   0.0141093
        k(    7) = (   0.0000000   0.1111111   0.1999753), wk =   0.0141093
        k(    8) = (   0.0000000   0.1111111   0.2999629), wk =   0.0141093
        k(    9) = (   0.0000000   0.2222222   0.0000000), wk =   0.0070547
        k(   10) = (   0.0000000   0.2222222   0.0999876), wk =   0.0141093
        k(   11) = (   0.0000000   0.2222222   0.1999753), wk =   0.0141093
        k(   12) = (   0.0000000   0.2222222   0.2999629), wk =   0.0141093
        k(   13) = (   0.0000000   0.3333333   0.0000000), wk =   0.0070547
        k(   14) = (   0.0000000   0.3333333   0.0999876), wk =   0.0141093
        k(   15) = (   0.0000000   0.3333333   0.1999753), wk =   0.0141093
        k(   16) = (   0.0000000   0.3333333   0.2999629), wk =   0.0141093
        k(   17) = (   0.0000000   0.4444444   0.0000000), wk =   0.0070547
        k(   18) = (   0.0000000   0.4444444   0.0999876), wk =   0.0141093
        k(   19) = (   0.0000000   0.4444444   0.1999753), wk =   0.0141093
        k(   20) = (   0.0000000   0.4444444   0.2999629), wk =   0.0141093
        k(   21) = (   0.1111111   0.1111111   0.0000000), wk =   0.0070547
        k(   22) = (   0.1111111   0.1111111   0.0999876), wk =   0.0141093
        k(   23) = (   0.1111111   0.1111111   0.1999753), wk =   0.0141093
        k(   24) = (   0.1111111   0.1111111   0.2999629), wk =   0.0141093
        k(   25) = (   0.1111111   0.2222222   0.0000000), wk =   0.0141093
        k(   26) = (   0.1111111   0.2222222   0.0999876), wk =   0.0282187
        k(   27) = (   0.1111111   0.2222222   0.1999753), wk =   0.0282187
        k(   28) = (   0.1111111   0.2222222   0.2999629), wk =   0.0282187
        k(   29) = (   0.1111111   0.3333333   0.0000000), wk =   0.0141093
        k(   30) = (   0.1111111   0.3333333   0.0999876), wk =   0.0282187
        k(   31) = (   0.1111111   0.3333333   0.1999753), wk =   0.0282187
        k(   32) = (   0.1111111   0.3333333   0.2999629), wk =   0.0282187
        k(   33) = (   0.1111111   0.4444444   0.0000000), wk =   0.0141093
        k(   34) = (   0.1111111   0.4444444   0.0999876), wk =   0.0282187
        k(   35) = (   0.1111111   0.4444444   0.1999753), wk =   0.0282187
        k(   36) = (   0.1111111   0.4444444   0.2999629), wk =   0.0282187
        k(   37) = (   0.2222222   0.2222222   0.0000000), wk =   0.0070547
        k(   38) = (   0.2222222   0.2222222   0.0999876), wk =   0.0141093
        k(   39) = (   0.2222222   0.2222222   0.1999753), wk =   0.0141093
        k(   40) = (   0.2222222   0.2222222   0.2999629), wk =   0.0141093
        k(   41) = (   0.2222222   0.3333333   0.0000000), wk =   0.0141093
        k(   42) = (   0.2222222   0.3333333   0.0999876), wk =   0.0282187
        k(   43) = (   0.2222222   0.3333333   0.1999753), wk =   0.0282187
        k(   44) = (   0.2222222   0.3333333   0.2999629), wk =   0.0282187
        k(   45) = (   0.2222222   0.4444444   0.0000000), wk =   0.0141093
        k(   46) = (   0.2222222   0.4444444   0.0999876), wk =   0.0282187
        k(   47) = (   0.2222222   0.4444444   0.1999753), wk =   0.0282187
        k(   48) = (   0.2222222   0.4444444   0.2999629), wk =   0.0282187
        k(   49) = (   0.3333333   0.3333333   0.0000000), wk =   0.0070547
        k(   50) = (   0.3333333   0.3333333   0.0999876), wk =   0.0141093
        k(   51) = (   0.3333333   0.3333333   0.1999753), wk =   0.0141093
        k(   52) = (   0.3333333   0.3333333   0.2999629), wk =   0.0141093
        k(   53) = (   0.3333333   0.4444444   0.0000000), wk =   0.0141093
        k(   54) = (   0.3333333   0.4444444   0.0999876), wk =   0.0282187
        k(   55) = (   0.3333333   0.4444444   0.1999753), wk =   0.0282187
        k(   56) = (   0.3333333   0.4444444   0.2999629), wk =   0.0282187
        k(   57) = (   0.4444444   0.4444444   0.0000000), wk =   0.0070547
        k(   58) = (   0.4444444   0.4444444   0.0999876), wk =   0.0141093
        k(   59) = (   0.4444444   0.4444444   0.1999753), wk =   0.0141093
        k(   60) = (   0.4444444   0.4444444   0.2999629), wk =   0.0141093

                       cryst. coord.
        k(    1) = (   0.0000000   0.0000000   0.0000000), wk =   0.0017637
        k(    2) = (   0.0000000   0.0000000   0.1428571), wk =   0.0035273
        k(    3) = (   0.0000000   0.0000000   0.2857143), wk =   0.0035273
        k(    4) = (   0.0000000   0.0000000   0.4285714), wk =   0.0035273
        k(    5) = (   0.0000000   0.1111111   0.0000000), wk =   0.0070547
        k(    6) = (   0.0000000   0.1111111   0.1428571), wk =   0.0141093
        k(    7) = (   0.0000000   0.1111111   0.2857143), wk =   0.0141093
        k(    8) = (   0.0000000   0.1111111   0.4285714), wk =   0.0141093
        k(    9) = (   0.0000000   0.2222222   0.0000000), wk =   0.0070547
        k(   10) = (   0.0000000   0.2222222   0.1428571), wk =   0.0141093
        k(   11) = (   0.0000000   0.2222222   0.2857143), wk =   0.0141093
        k(   12) = (   0.0000000   0.2222222   0.4285714), wk =   0.0141093
        k(   13) = (   0.0000000   0.3333333   0.0000000), wk =   0.0070547
        k(   14) = (   0.0000000   0.3333333   0.1428571), wk =   0.0141093
        k(   15) = (   0.0000000   0.3333333   0.2857143), wk =   0.0141093
        k(   16) = (   0.0000000   0.3333333   0.4285714), wk =   0.0141093
        k(   17) = (   0.0000000   0.4444444   0.0000000), wk =   0.0070547
        k(   18) = (   0.0000000   0.4444444   0.1428571), wk =   0.0141093
        k(   19) = (   0.0000000   0.4444444   0.2857143), wk =   0.0141093
        k(   20) = (   0.0000000   0.4444444   0.4285714), wk =   0.0141093
        k(   21) = (   0.1111111   0.1111111   0.0000000), wk =   0.0070547
        k(   22) = (   0.1111111   0.1111111   0.1428571), wk =   0.0141093
        k(   23) = (   0.1111111   0.1111111   0.2857143), wk =   0.0141093
        k(   24) = (   0.1111111   0.1111111   0.4285714), wk =   0.0141093
        k(   25) = (   0.1111111   0.2222222   0.0000000), wk =   0.0141093
        k(   26) = (   0.1111111   0.2222222   0.1428571), wk =   0.0282187
        k(   27) = (   0.1111111   0.2222222   0.2857143), wk =   0.0282187
        k(   28) = (   0.1111111   0.2222222   0.4285714), wk =   0.0282187
        k(   29) = (   0.1111111   0.3333333   0.0000000), wk =   0.0141093
        k(   30) = (   0.1111111   0.3333333   0.1428571), wk =   0.0282187
        k(   31) = (   0.1111111   0.3333333   0.2857143), wk =   0.0282187
        k(   32) = (   0.1111111   0.3333333   0.4285714), wk =   0.0282187
        k(   33) = (   0.1111111   0.4444444   0.0000000), wk =   0.0141093
        k(   34) = (   0.1111111   0.4444444   0.1428571), wk =   0.0282187
        k(   35) = (   0.1111111   0.4444444   0.2857143), wk =   0.0282187
        k(   36) = (   0.1111111   0.4444444   0.4285714), wk =   0.0282187
        k(   37) = (   0.2222222   0.2222222   0.0000000), wk =   0.0070547
        k(   38) = (   0.2222222   0.2222222   0.1428571), wk =   0.0141093
        k(   39) = (   0.2222222   0.2222222   0.2857143), wk =   0.0141093
        k(   40) = (   0.2222222   0.2222222   0.4285714), wk =   0.0141093
        k(   41) = (   0.2222222   0.3333333   0.0000000), wk =   0.0141093
        k(   42) = (   0.2222222   0.3333333   0.1428571), wk =   0.0282187
        k(   43) = (   0.2222222   0.3333333   0.2857143), wk =   0.0282187
        k(   44) = (   0.2222222   0.3333333   0.4285714), wk =   0.0282187
        k(   45) = (   0.2222222   0.4444444   0.0000000), wk =   0.0141093
        k(   46) = (   0.2222222   0.4444444   0.1428571), wk =   0.0282187
        k(   47) = (   0.2222222   0.4444444   0.2857143), wk =   0.0282187
        k(   48) = (   0.2222222   0.4444444   0.4285714), wk =   0.0282187
        k(   49) = (   0.3333333   0.3333333   0.0000000), wk =   0.0070547
        k(   50) = (   0.3333333   0.3333333   0.1428571), wk =   0.0141093
        k(   51) = (   0.3333333   0.3333333   0.2857143), wk =   0.0141093
        k(   52) = (   0.3333333   0.3333333   0.4285714), wk =   0.0141093
        k(   53) = (   0.3333333   0.4444444   0.0000000), wk =   0.0141093
        k(   54) = (   0.3333333   0.4444444   0.1428571), wk =   0.0282187
        k(   55) = (   0.3333333   0.4444444   0.2857143), wk =   0.0282187
        k(   56) = (   0.3333333   0.4444444   0.4285714), wk =   0.0282187
        k(   57) = (   0.4444444   0.4444444   0.0000000), wk =   0.0070547
        k(   58) = (   0.4444444   0.4444444   0.1428571), wk =   0.0141093
        k(   59) = (   0.4444444   0.4444444   0.2857143), wk =   0.0141093
        k(   60) = (   0.4444444   0.4444444   0.4285714), wk =   0.0141093

     Dense  grid:    55993 G-vectors     FFT dimensions: (  45,  45,  64)

     Smooth grid:    10451 G-vectors     FFT dimensions: (  25,  25,  36)

     Dynamical RAM for                 wfc:       0.10 MB

     Dynamical RAM for     wfc (w. buffer):       6.37 MB

     Dynamical RAM for           str. fact:       0.08 MB

     Dynamical RAM for           local pot:       0.00 MB

     Dynamical RAM for          nlocal pot:       0.03 MB

     Dynamical RAM for                qrad:       4.49 MB

     Dynamical RAM for          rho,v,vnew:       1.02 MB

     Dynamical RAM for           G-vectors:       0.15 MB

     Dynamical RAM for          h,s,v(r/c):       0.62 MB

     Dynamical RAM for          <psi|beta>:       0.06 MB

     Dynamical RAM for                 psi:       0.21 MB

     Dynamical RAM for                hpsi:       0.21 MB

     Dynamical RAM for                spsi:       0.21 MB

     Dynamical RAM for      wfcinit/wfcrot:       0.23 MB

     Dynamical RAM for           addusdens:       7.38 MB

     Estimated static dynamical RAM per process >      12.63 MB

     Estimated max dynamical RAM per process >      20.00 MB

     Estimated total dynamical RAM >     440.08 MB

     Check: negative core charge=   -0.000008
     Generating pointlists ...
     new r_m :   0.4125 (alat units)  1.9539 (a.u.) for type    1
     new r_m :   0.4125 (alat units)  1.9539 (a.u.) for type    2
     Message from routine read_rhog:
     some spin components not found
 
 -----------
Spin angles Theta, Phi (degree) =   0.0000  0.0000
 -----------

     The potential is recalculated from file :
     ./work/pwscf.save/charge-density

     Starting wfcs are   44 randomized atomic wfcs +   14 random wfcs

     Band Structure Calculation
     Davidson diagonalization with overlap

     Computing kpt #:     1  of    60
     total cpu time spent up to now is        0.8 secs

     Computing kpt #:     2  of    60
     total cpu time spent up to now is        1.1 secs

     Computing kpt #:     3  of    60
     total cpu time spent up to now is        1.5 secs

     Computing kpt #:     4  of    60
     total cpu time spent up to now is        1.8 secs

     Computing kpt #:     5  of    60
     total cpu time spent up to now is        2.2 secs

     Computing kpt #:     6  of    60
     total cpu time spent up to now is        2.7 secs

     Computing kpt #:     7  of    60
     total cpu time spent up to now is        3.1 secs

     Computing kpt #:     8  of    60
     total cpu time spent up to now is        3.5 secs

     Computing kpt #:     9  of    60
     total cpu time spent up to now is        3.9 secs

     Computing kpt #:    10  of    60
     total cpu time spent up to now is        4.3 secs

     Computing kpt #:    11  of    60
     total cpu time spent up to now is        4.7 secs

     Computing kpt #:    12  of    60
     total cpu time spent up to now is        5.2 secs

     Computing kpt #:    13  of    60
     total cpu time spent up to now is        5.7 secs

     Computing kpt #:    14  of    60
     total cpu time spent up to now is        6.3 secs

     Computing kpt #:    15  of    60
     total cpu time spent up to now is        6.7 secs

     Computing kpt #:    16  of    60
     total cpu time spent up to now is        7.1 secs

     Computing kpt #:    17  of    60
     total cpu time spent up to now is        7.5 secs

     Computing kpt #:    18  of    60
     total cpu time spent up to now is        7.9 secs

     Computing kpt #:    19  of    60
     total cpu time spent up to now is        8.3 secs

     Computing kpt #:    20  of    60
     total cpu time spent up to now is        8.7 secs

     Computing kpt #:    21  of    60
     total cpu time spent up to now is        9.0 secs

     Computing kpt #:    22  of    60
     total cpu time spent up to now is        9.4 secs

     Computing kpt #:    23  of    60
     total cpu time spent up to now is        9.7 secs

     Computing kpt #:    24  of    60
     total cpu time spent up to now is       10.1 secs

     Computing kpt #:    25  of    60
     total cpu time spent up to now is       10.5 secs

     Computing kpt #:    26  of    60
     total cpu time spent up to now is       10.9 secs

     Computing kpt #:    27  of    60
     total cpu time spent up to now is       11.3 secs

     Computing kpt #:    28  of    60
     total cpu time spent up to now is       11.7 secs

     Computing kpt #:    29  of    60
     total cpu time spent up to now is       12.1 secs

     Computing kpt #:    30  of    60
     total cpu time spent up to now is       12.6 secs

     Computing kpt #:    31  of    60
     total cpu time spent up to now is       13.1 secs

     Computing kpt #:    32  of    60
     total cpu time spent up to now is       13.5 secs

     Computing kpt #:    33  of    60
     total cpu time spent up to now is       13.9 secs

     Computing kpt #:    34  of    60
     total cpu time spent up to now is       14.2 secs

     Computing kpt #:    35  of    60
     total cpu time spent up to now is       14.6 secs

     Computing kpt #:    36  of    60
     total cpu time spent up to now is       15.0 secs

     Computing kpt #:    37  of    60
     total cpu time spent up to now is       15.3 secs

     Computing kpt #:    38  of    60
     total cpu time spent up to now is       15.7 secs

     Computing kpt #:    39  of    60
     total cpu time spent up to now is       16.0 secs

     Computing kpt #:    40  of    60
     total cpu time spent up to now is       16.4 secs

     Computing kpt #:    41  of    60
     total cpu time spent up to now is       16.9 secs

     Computing kpt #:    42  of    60
     total cpu time spent up to now is       17.3 secs

     Computing kpt #:    43  of    60
     total cpu time spent up to now is       17.7 secs

     Computing kpt #:    44  of    60
     total cpu time spent up to now is       18.0 secs

     Computing kpt #:    45  of    60
     total cpu time spent up to now is       18.3 secs

     Computing kpt #:    46  of    60
     total cpu time spent up to now is       18.7 secs

     Computing kpt #:    47  of    60
     total cpu time spent up to now is       19.2 secs

     Computing kpt #:    48  of    60
     total cpu time spent up to now is       19.6 secs

     Computing kpt #:    49  of    60
     total cpu time spent up to now is       20.0 secs

     Computing kpt #:    50  of    60
     total cpu time spent up to now is       20.4 secs

     Computing kpt #:    51  of    60
     total cpu time spent up to now is       20.8 secs

     Computing kpt #:    52  of    60
     total cpu time spent up to now is       21.2 secs

     Computing kpt #:    53  of    60
     total cpu time spent up to now is       21.6 secs

     Computing kpt #:    54  of    60
     total cpu time spent up to now is       22.1 secs

     Computing kpt #:    55  of    60
     total cpu time spent up to now is       22.5 secs

     Computing kpt #:    56  of    60
     total cpu time spent up to now is       22.8 secs

     Computing kpt #:    57  of    60
     total cpu time spent up to now is       23.3 secs

     Computing kpt #:    58  of    60
     total cpu time spent up to now is       23.7 secs

     Computing kpt #:    59  of    60
     total cpu time spent up to now is       24.0 secs

     Computing kpt #:    60  of    60
     total cpu time spent up to now is       24.4 secs

     ethr =  3.85E-11,  avg # of iterations = 37.0

     total cpu time spent up to now is       24.4 secs

     End of band structure calculation

------
 eband, Ef (eV) =   -121.564200382359        15.9644676718657     
------


          k = 0.0000 0.0000 0.0000 (  1297 PWs)   bands (ev):

   -72.6131 -69.3983 -38.7793 -38.4628 -38.4628 -35.5289 -35.3403 -35.3403
     7.0030   7.0788  10.8334  11.5390  11.9267  12.6356  13.4056  13.4056
    13.4098  14.3848  14.5290  14.6259  14.6259  14.9691  15.2712  15.5180
    15.5180  15.5360  16.2808  17.6580  17.6580  18.0959  18.1280  18.2172
    25.0099  26.0136  30.6118  30.6118  30.8038  30.8038  35.4221  35.8495
    38.5912  38.8590  39.0744  39.5439  42.7643  42.9371  42.9371  43.0094
    43.1396  43.1396  45.4121  45.4121  45.5520  45.8381  45.8381  45.9758
    48.0773  48.4646

     occupation numbers 
     1.0000   1.0000   1.0000   1.0000   1.0000   1.0000   1.0000   1.0000
     1.0000   1.0000   1.0000   1.0000   1.0000   1.0000   1.0000   1.0000
     1.0000   1.0000   1.0000   1.0000   1.0000   1.0000   1.0000   1.0000
     1.0000   1.0000  -0.0024  -0.0000  -0.0000  -0.0000  -0.0000  -0.0000
    -0.0000  -0.0000  -0.0000  -0.0000  -0.0000  -0.0000  -0.0000  -0.0000
    -0.0000  -0.0000  -0.0000  -0.0000  -0.0000  -0.0000  -0.0000  -0.0000
    -0.0000  -0.0000  -0.0000  -0.0000  -0.0000  -0.0000  -0.0000  -0.0000
    -0.0000  -0.0000

          k = 0.0000 0.0000 0.1000 (  1305 PWs)   bands (ev):

   -72.6131 -69.3983 -38.7799 -38.4632 -38.4632 -35.5298 -35.3406 -35.3406
     7.2628   7.3388  10.8675  11.6219  11.8962  12.7192  13.3106  13.4855
    13.4855  14.2917  14.5639  14.6855  14.6855  14.8628  15.2340  15.3785
    15.3785  15.5467  16.0470  16.9728  17.4452  17.5194  17.5194  18.0824
    26.5835  27.3876  31.0134  31.0134  31.2297  31.2297  35.4794  35.8587
    38.3078  38.4214  39.1613  39.6202  41.1187  41.1187  41.4526  41.4526
    41.5982  41.7104  46.5726  46.8914  47.2303  47.2303  47.4871  47.4871
    49.2886  49.4014

     occupation numbers 
     1.0000   1.0000   1.0000   1.0000   1.0000   1.0000   1.0000   1.0000
     1.0000   1.0000   1.0000   1.0000   1.0000   1.0000   1.0000   1.0000
     1.0000   1.0000   1.0000   1.0000   1.0000   1.0000   1.0000   1.0000
     1.0000   1.0001   0.0772  -0.0000  -0.0000  -0.0000  -0.0000  -0.0000
    -0.0000  -0.0000  -0.0000  -0.0000  -0.0000  -0.0000  -0.0000  -0.0000
    -0.0000  -0.0000  -0.0000  -0.0000  -0.0000  -0.0000  -0.0000  -0.0000
    -0.0000  -0.0000  -0.0000  -0.0000  -0.0000  -0.0000  -0.0000  -0.0000
    -0.0000  -0.0000

          k = 0.0000 0.0000 0.2000 (  1317 PWs)   bands (ev):

   -72.6131 -69.3982 -38.7822 -38.4633 -38.4633 -35.5327 -35.3408 -35.3408
     8.0144   8.0940  10.8378  11.6007  11.8563  12.9449  13.0396  13.7192
    13.7192  14.0476  14.5864  14.6615  14.8397  14.8397  15.0151  15.0151
    15.0748  15.1314  15.2109  15.5713  16.5747  17.1954  17.1954  18.0516
    29.8119  30.3641  32.1549  32.1549  32.4238  32.4238  35.6511  35.8838
    37.6027  37.7886  38.5420  38.5420  38.9365  38.9365  39.2010  39.2983
    39.7800  40.1919  45.9132  46.6254  49.1202  49.2823  49.8618  49.8618
    49.9770  49.9770

     occupation numbers 
     1.0000   1.0000   1.0000   1.0000   1.0000   1.0000   1.0000   1.0000
     1.0000   1.0000   1.0000   1.0000   1.0000   1.0000   1.0000   1.0000
     1.0000   1.0000   1.0000   1.0000   1.0000   1.0000   1.0000   1.0000
     1.0000   1.0000   1.0000   1.0002  -0.0000  -0.0000  -0.0000  -0.0000
    -0.0000  -0.0000  -0.0000  -0.0000  -0.0000  -0.0000  -0.0000  -0.0000
    -0.0000  -0.0000  -0.0000  -0.0000  -0.0000  -0.0000  -0.0000  -0.0000
    -0.0000  -0.0000  -0.0000  -0.0000  -0.0000  -0.0000  -0.0000  -0.0000
    -0.0000  -0.0000

          k = 0.0000 0.0000 0.3000 (  1310 PWs)   bands (ev):

   -72.6130 -69.3981 -38.7833 -38.4634 -38.4634 -35.5343 -35.3408 -35.3408
     9.1435   9.2416  10.2950  10.6531  12.1874  12.6793  13.2019  13.7410
    13.9695  14.0837  14.0837  14.2889  14.5505  14.5505  14.5968  14.7972
    14.9916  14.9944  14.9944  15.5915  16.2351  16.9114  16.9114  18.0264
    33.4384  33.7258  33.8819  33.8819  34.1804  34.1804  35.8924  35.9102
    36.0904  36.0904  36.5134  36.5134  36.7987  36.9482  36.9597  37.4434
    40.4940  41.0539  42.4924  43.1584  52.5829  52.5829  52.6191  52.6382
    52.6382  52.6704

     occupation numbers 
     1.0000   1.0000   1.0000   1.0000   1.0000   1.0000   1.0000   1.0000
     1.0000   1.0000   1.0000   1.0000   1.0000   1.0000   1.0000   1.0000
     1.0000   1.0000   1.0000   1.0000   1.0000   1.0000   1.0000   1.0000
     1.0000   1.0000   1.0000   1.0004  -0.0083  -0.0000  -0.0000  -0.0000
    -0.0000  -0.0000  -0.0000  -0.0000  -0.0000  -0.0000  -0.0000  -0.0000
    -0.0000  -0.0000  -0.0000  -0.0000  -0.0000  -0.0000  -0.0000  -0.0000
    -0.0000  -0.0000  -0.0000  -0.0000  -0.0000  -0.0000  -0.0000  -0.0000
    -0.0000  -0.0000

          k = 0.0000 0.1111 0.0000 (  1306 PWs)   bands (ev):

   -72.6101 -69.3949 -38.7766 -38.4906 -38.4605 -35.5258 -35.3718 -35.3377
     7.3229   7.4001  11.0046  11.6588  12.1097  12.7422  13.3007  13.4764
    13.4987  14.4015  14.4506  14.4774  14.6857  14.8733  15.0712  15.1293
    15.4420  15.4633  16.3074  16.5264  17.6166  17.9232  19.0889  19.6812
    25.0690  26.0394  28.1479  28.4683  31.0978  31.3209  36.4705  36.8340
    37.8657  37.8920  39.9082  40.1486  41.0666  41.4772  41.5753  41.7875
    43.3730  43.5849  45.5419  45.9546  45.9959  46.1076  48.0676  48.2646
    50.7821  50.8352

     occupation numbers 
     1.0000   1.0000   1.0000   1.0000   1.0000   1.0000   1.0000   1.0000
     1.0000   1.0000   1.0000   1.0000   1.0000   1.0000   1.0000   1.0000
     1.0000   1.0000   1.0000   1.0000   1.0000   1.0000   1.0000   1.0000
     1.0000   1.0000  -0.0011  -0.0000  -0.0000  -0.0000  -0.0000  -0.0000
    -0.0000  -0.0000  -0.0000  -0.0000  -0.0000  -0.0000  -0.0000  -0.0000
    -0.0000  -0.0000  -0.0000  -0.0000  -0.0000  -0.0000  -0.0000  -0.0000
    -0.0000  -0.0000  -0.0000  -0.0000  -0.0000  -0.0000  -0.0000  -0.0000
    -0.0000  -0.0000

          k = 0.0000 0.1111 0.1000 (  1309 PWs)   bands (ev):

   -72.6101 -69.3948 -38.7772 -38.4906 -38.4608 -35.5267 -35.3717 -35.3380
     7.5763   7.6545  11.0456  11.7362  12.0884  12.8198  13.2544  13.5248
    13.5331  14.3227  14.4720  14.5028  14.6600  14.7276  15.0132  15.0247
    15.4215  15.4491  15.8983  16.5059  17.4760  17.9207  17.9507  18.8951
    26.7051  27.4724  28.5040  28.8493  31.4824  31.7244  36.3396  36.4920
    36.6320  37.0464  39.8400  39.9110  41.1917  41.4923  41.5857  41.8411
    42.3460  42.6756  46.1037  46.2305  47.2539  47.2632  47.3734  47.4908
    50.9540  51.5876

     occupation numbers 
     1.0000   1.0000   1.0000   1.0000   1.0000   1.0000   1.0000   1.0000
     1.0000   1.0000   1.0000   1.0000   1.0000   1.0000   1.0000   1.0000
     1.0000   1.0000   1.0000   1.0000   1.0000   1.0000   1.0000   1.0000
     1.0000   1.0000   0.8625  -0.0000  -0.0000  -0.0000  -0.0000  -0.0000
    -0.0000  -0.0000  -0.0000  -0.0000  -0.0000  -0.0000  -0.0000  -0.0000
    -0.0000  -0.0000  -0.0000  -0.0000  -0.0000  -0.0000  -0.0000  -0.0000
    -0.0000  -0.0000  -0.0000  -0.0000  -0.0000  -0.0000  -0.0000  -0.0000
    -0.0000  -0.0000

          k = 0.0000 0.1111 0.2000 (  1306 PWs)   bands (ev):

   -72.6100 -69.3947 -38.7790 -38.4903 -38.4609 -35.5290 -35.3715 -35.3380
     8.3079   8.3929  11.0354  11.8147  11.9565  13.0298  13.0348  13.6449
    13.7028  14.0454  14.2029  14.3722  14.6236  14.7422  14.8415  14.9240
    15.1047  15.2939  15.4486  16.1802  16.4130  17.2177  17.7831  17.9563
    29.2401  29.6413  30.2017  30.7130  32.5835  32.8671  34.3448  34.6883
    36.8603  37.1380  38.6138  38.6802  38.8981  39.3051  41.5812  41.8350
    42.3886  42.6673  45.2665  45.6820  47.7704  48.2538  49.3829  49.4890
    49.8447  49.9049

     occupation numbers 
     1.0000   1.0000   1.0000   1.0000   1.0000   1.0000   1.0000   1.0000
     1.0000   1.0000   1.0000   1.0000   1.0000   1.0000   1.0000   1.0000
     1.0000   1.0000   1.0000   1.0000   1.0000   1.0000   1.0000   1.0000
     1.0000   1.0000   1.0000  -0.0237  -0.0000  -0.0000  -0.0000  -0.0000
    -0.0000  -0.0000  -0.0000  -0.0000  -0.0000  -0.0000  -0.0000  -0.0000
    -0.0000  -0.0000  -0.0000  -0.0000  -0.0000  -0.0000  -0.0000  -0.0000
    -0.0000  -0.0000  -0.0000  -0.0000  -0.0000  -0.0000  -0.0000  -0.0000
    -0.0000  -0.0000

          k = 0.0000 0.1111 0.3000 (  1313 PWs)   bands (ev):

   -72.6099 -69.3947 -38.7803 -38.4907 -38.4611 -35.5308 -35.3718 -35.3383
     9.4023   9.5117  10.5180  10.8931  12.2709  12.7092  13.2682  13.4920
    13.6005  13.9780  14.1999  14.3325  14.4054  14.5108  14.8657  14.9693
    15.0107  15.0449  15.1023  15.4139  16.4332  17.0332  17.0695  17.9401
    30.6750  31.0173  32.4632  32.9367  33.8119  34.1078  34.2655  34.5649
    36.4558  36.8237  36.8960  36.9079  37.6383  37.9602  39.3101  39.6032
    42.5608  43.0611  44.1422  44.6967  49.3000  49.4004  51.2943  51.3738
    52.4538  52.5347

     occupation numbers 
     1.0000   1.0000   1.0000   1.0000   1.0000   1.0000   1.0000   1.0000
     1.0000   1.0000   1.0000   1.0000   1.0000   1.0000   1.0000   1.0000
     1.0000   1.0000   1.0000   1.0000   1.0000   1.0000   1.0000   1.0000
     1.0000   1.0000   1.0000   1.0000  -0.0000  -0.0000  -0.0000  -0.0000
    -0.0000  -0.0000  -0.0000  -0.0000  -0.0000  -0.0000  -0.0000  -0.0000
    -0.0000  -0.0000  -0.0000  -0.0000  -0.0000  -0.0000  -0.0000  -0.0000
    -0.0000  -0.0000  -0.0000  -0.0000  -0.0000  -0.0000  -0.0000  -0.0000
    -0.0000  -0.0000

          k = 0.0000 0.2222 0.0000 (  1324 PWs)   bands (ev):

   -72.6024 -69.3863 -38.7702 -38.5595 -38.4551 -35.5182 -35.4501 -35.3315
     8.2400   8.3273  11.4422  11.9690  12.5835  12.9986  13.0331  13.6214
    13.6786  13.9315  14.1094  14.2559  14.5751  14.7896  14.8468  15.2105
    15.2350  15.3022  15.5075  16.4799  17.5021  17.5171  20.9876  21.6873
    24.1011  24.7052  25.6703  26.4351  32.4696  32.7594  35.0126  35.3431
    36.0303  36.2784  37.0616  37.4212  42.0611  42.0934  44.3507  44.4017
    44.4203  44.6221  45.9473  45.9806  46.2991  46.3198  48.1758  48.8002
    51.7400  51.7662

     occupation numbers 
     1.0000   1.0000   1.0000   1.0000   1.0000   1.0000   1.0000   1.0000
     1.0000   1.0000   1.0000   1.0000   1.0000   1.0000   1.0000   1.0000
     1.0000   1.0000   1.0000   1.0000   1.0000   1.0000   1.0000   1.0000
     1.0000   1.0000   1.0000  -0.0000  -0.0000  -0.0000  -0.0000  -0.0000
    -0.0000  -0.0000  -0.0000  -0.0000  -0.0000  -0.0000  -0.0000  -0.0000
    -0.0000  -0.0000  -0.0000  -0.0000  -0.0000  -0.0000  -0.0000  -0.0000
    -0.0000  -0.0000  -0.0000  -0.0000  -0.0000  -0.0000  -0.0000  -0.0000
    -0.0000  -0.0000

          k = 0.0000 0.2222 0.1000 (  1307 PWs)   bands (ev):

   -72.6023 -69.3862 -38.7705 -38.5590 -38.4549 -35.5187 -35.4496 -35.3313
     8.4663   8.5606  11.4835  12.0282  12.5672  13.0472  13.0624  13.6041
    13.6429  13.7831  14.0783  14.3718  14.5220  14.6359  14.8268  15.2197
    15.2198  15.2905  15.3553  16.4605  17.3282  17.6768  19.4764  20.4418
    24.6592  25.2038  27.3654  28.0200  32.8113  32.8395  33.1088  33.2480
    37.1319  37.4368  38.3979  38.4811  40.9523  41.1515  42.5329  42.9093
    45.7430  45.8479  46.1948  46.4419  46.4548  46.6877  48.8270  48.9613
    50.0323  50.6085

     occupation numbers 
     1.0000   1.0000   1.0000   1.0000   1.0000   1.0000   1.0000   1.0000
     1.0000   1.0000   1.0000   1.0000   1.0000   1.0000   1.0000   1.0000
     1.0000   1.0000   1.0000   1.0000   1.0000   1.0000   1.0000   1.0000
     1.0000   1.0000   1.0000  -0.0000  -0.0000  -0.0000  -0.0000  -0.0000
    -0.0000  -0.0000  -0.0000  -0.0000  -0.0000  -0.0000  -0.0000  -0.0000
    -0.0000  -0.0000  -0.0000  -0.0000  -0.0000  -0.0000  -0.0000  -0.0000
    -0.0000  -0.0000  -0.0000  -0.0000  -0.0000  -0.0000  -0.0000  -0.0000
    -0.0000  -0.0000

          k = 0.0000 0.2222 0.2000 (  1304 PWs)   bands (ev):

   -72.6022 -69.3861 -38.7719 -38.5587 -38.4550 -35.5206 -35.4492 -35.3314
     9.1091   9.2325  11.4441  12.2391  12.2863  13.0290  13.2734  13.4358
    13.5681  13.6340  14.0057  14.2673  14.4803  14.6967  14.8237  14.8258
    15.1787  15.1910  15.3625  16.4756  17.2422  17.3537  17.7510  18.7176
    25.5887  26.1417  30.5262  30.7600  30.9918  31.2649  33.8058  34.1189
    37.4147  37.6598  38.7129  38.8001  39.9043  40.3382  42.0714  42.4673
    44.5891  44.7947  46.4708  46.8128  47.2140  47.4151  47.9381  48.0325
    51.3122  51.6398

     occupation numbers 
     1.0000   1.0000   1.0000   1.0000   1.0000   1.0000   1.0000   1.0000
     1.0000   1.0000   1.0000   1.0000   1.0000   1.0000   1.0000   1.0000
     1.0000   1.0000   1.0000   1.0000   1.0000   1.0000   1.0000   1.0000
     1.0000   1.0000   1.0000  -0.0000  -0.0000  -0.0000  -0.0000  -0.0000
    -0.0000  -0.0000  -0.0000  -0.0000  -0.0000  -0.0000  -0.0000  -0.0000
    -0.0000  -0.0000  -0.0000  -0.0000  -0.0000  -0.0000  -0.0000  -0.0000
    -0.0000  -0.0000  -0.0000  -0.0000  -0.0000  -0.0000  -0.0000  -0.0000
    -0.0000  -0.0000

          k = 0.0000 0.2222 0.3000 (  1297 PWs)   bands (ev):

   -72.6021 -69.3860 -38.7730 -38.5584 -38.4550 -35.5221 -35.4489 -35.3314
    10.0322  10.2314  10.9647  11.4532  12.5841  12.9005  13.2236  13.4106
    13.5012  13.7359  13.9638  14.0620  14.4264  14.8140  14.8872  14.9863
    15.0612  15.1444  15.2382  15.7508  16.7525  17.2567  17.4777  17.7461
    26.8696  27.3784  28.6161  29.2232  34.3879  34.6229  35.3605  35.6521
    37.1693  37.1763  37.4998  37.9823  38.2473  38.5754  40.4481  40.8325
    45.6049  45.8140  47.1518  47.4220  48.3211  48.3337  48.4677  48.6428
    48.9786  49.1384

     occupation numbers 
     1.0000   1.0000   1.0000   1.0000   1.0000   1.0000   1.0000   1.0000
     1.0000   1.0000   1.0000   1.0000   1.0000   1.0000   1.0000   1.0000
     1.0000   1.0000   1.0000   1.0000   1.0000   1.0000   1.0000   1.0000
     1.0000   1.0000   1.0000   1.0244  -0.0000  -0.0000  -0.0000  -0.0000
    -0.0000  -0.0000  -0.0000  -0.0000  -0.0000  -0.0000  -0.0000  -0.0000
    -0.0000  -0.0000  -0.0000  -0.0000  -0.0000  -0.0000  -0.0000  -0.0000
    -0.0000  -0.0000  -0.0000  -0.0000  -0.0000  -0.0000  -0.0000  -0.0000
    -0.0000  -0.0000

          k = 0.0000 0.3333 0.0000 (  1304 PWs)   bands (ev):

   -72.5935 -69.3763 -38.7623 -38.6362 -38.4483 -35.5374 -35.5089 -35.3238
     9.6048   9.7381  11.9827  12.2627  12.7129  13.1106  13.2130  13.2572
    13.5039  13.7118  13.9823  14.0403  14.4326  14.8285  14.9578  15.0453
    15.0521  15.1511  15.1902  16.9204  17.0989  17.3499  20.7842  21.6704
    23.2797  23.9753  26.2685  26.9225  31.7898  32.2845  32.6145  32.9922
    34.5429  34.8945  37.5828  37.8215  42.0728  42.1181  43.3133  43.6384
    43.6567  43.6604  46.6705  46.9721  47.6606  48.2278  51.7043  51.8264
    51.9588  51.9750

     occupation numbers 
     1.0000   1.0000   1.0000   1.0000   1.0000   1.0000   1.0000   1.0000
     1.0000   1.0000   1.0000   1.0000   1.0000   1.0000   1.0000   1.0000
     1.0000   1.0000   1.0000   1.0000   1.0000   1.0000   1.0000   1.0000
     1.0000   1.0000   1.0000  -0.0000  -0.0000  -0.0000  -0.0000  -0.0000
    -0.0000  -0.0000  -0.0000  -0.0000  -0.0000  -0.0000  -0.0000  -0.0000
    -0.0000  -0.0000  -0.0000  -0.0000  -0.0000  -0.0000  -0.0000  -0.0000
    -0.0000  -0.0000  -0.0000  -0.0000  -0.0000  -0.0000  -0.0000  -0.0000
    -0.0000  -0.0000

          k = 0.0000 0.3333 0.1000 (  1304 PWs)   bands (ev):

   -72.5934 -69.3763 -38.7628 -38.6361 -38.4483 -35.5373 -35.5096 -35.3239
     9.7475   9.9158  11.8948  12.2842  12.8714  12.9158  13.3311  13.3377
    13.5038  13.7099  13.7935  14.1713  14.4546  14.8369  14.8450  15.0666
    15.0788  15.1729  15.2223  16.8643  17.1067  17.4524  20.2313  21.1212
    22.3237  23.1746  28.3663  28.8600  29.4678  30.0498  34.8286  35.1763
    35.2600  35.5550  37.6338  37.8566  40.9169  40.9523  43.5300  43.8518
    44.0685  44.4888  44.7769  44.8778  50.5007  50.5478  50.5719  50.5937
    50.8268  50.9829

     occupation numbers 
     1.0000   1.0000   1.0000   1.0000   1.0000   1.0000   1.0000   1.0000
     1.0000   1.0000   1.0000   1.0000   1.0000   1.0000   1.0000   1.0000
     1.0000   1.0000   1.0000   1.0000   1.0000   1.0000   1.0000   1.0000
     1.0000   1.0000   1.0000  -0.0000  -0.0000  -0.0000  -0.0000  -0.0000
    -0.0000  -0.0000  -0.0000  -0.0000  -0.0000  -0.0000  -0.0000  -0.0000
    -0.0000  -0.0000  -0.0000  -0.0000  -0.0000  -0.0000  -0.0000  -0.0000
    -0.0000  -0.0000  -0.0000  -0.0000  -0.0000  -0.0000  -0.0000  -0.0000
    -0.0000  -0.0000

          k = 0.0000 0.3333 0.2000 (  1308 PWs)   bands (ev):

   -72.5934 -69.3762 -38.7639 -38.6361 -38.4485 -35.5371 -35.5111 -35.3240
    10.1173  10.4063  11.5502  12.4532  12.5697  13.2751  13.4628  13.5047
    13.5226  13.6712  13.8824  13.9672  14.7186  14.8077  14.8137  14.9274
    14.9691  15.2924  15.3138  16.7729  17.2340  17.5755  18.2701  19.3920
    22.6015  23.4655  27.1239  27.7621  31.8398  32.2278  35.6753  36.0077
    37.8537  37.8764  37.9962  38.0669  39.9416  40.2952  41.3645  41.8167
    44.1857  44.4816  44.9821  45.2624  48.0311  48.1039  48.5863  48.5963
    48.7940  48.9638

     occupation numbers 
     1.0000   1.0000   1.0000   1.0000   1.0000   1.0000   1.0000   1.0000
     1.0000   1.0000   1.0000   1.0000   1.0000   1.0000   1.0000   1.0000
     1.0000   1.0000   1.0000   1.0000   1.0000   1.0000   1.0000   1.0000
     1.0000   1.0000   1.0000  -0.0000  -0.0000  -0.0000  -0.0000  -0.0000
    -0.0000  -0.0000  -0.0000  -0.0000  -0.0000  -0.0000  -0.0000  -0.0000
    -0.0000  -0.0000  -0.0000  -0.0000  -0.0000  -0.0000  -0.0000  -0.0000
    -0.0000  -0.0000  -0.0000  -0.0000  -0.0000  -0.0000  -0.0000  -0.0000
    -0.0000  -0.0000

          k = 0.0000 0.3333 0.3000 (  1306 PWs)   bands (ev):

   -72.5934 -69.3762 -38.7650 -38.6360 -38.4483 -35.5369 -35.5125 -35.3237
    10.5653  11.0752  11.1322  11.8460  12.9576  13.3502  13.4761  13.6423
    13.6516  13.7147  14.0593  14.1726  14.6370  14.6746  14.8373  15.1128
    15.1205  15.3093  15.3521  16.3478  16.9297  17.4253  17.5807  17.8878
    23.6352  24.4068  25.2421  26.0281  35.3216  35.4414  37.0252  37.2798
    37.3735  37.5290  38.6301  38.9085  39.0774  39.6096  40.8244  41.2635
    43.2584  43.5192  45.2351  45.4448  46.0161  46.2481  46.8132  47.2764
    48.8649  49.0725

     occupation numbers 
     1.0000   1.0000   1.0000   1.0000   1.0000   1.0000   1.0000   1.0000
     1.0000   1.0000   1.0000   1.0000   1.0000   1.0000   1.0000   1.0000
     1.0000   1.0000   1.0000   1.0000   1.0000   1.0000   1.0000   1.0000
     1.0000   1.0000   1.0000  -0.0003  -0.0000  -0.0000  -0.0000  -0.0000
    -0.0000  -0.0000  -0.0000  -0.0000  -0.0000  -0.0000  -0.0000  -0.0000
    -0.0000  -0.0000  -0.0000  -0.0000  -0.0000  -0.0000  -0.0000  -0.0000
    -0.0000  -0.0000  -0.0000  -0.0000  -0.0000  -0.0000  -0.0000  -0.0000
    -0.0000  -0.0000

          k = 0.0000 0.4444 0.0000 (  1312 PWs)   bands (ev):

   -72.5878 -69.3699 -38.7573 -38.6867 -38.4443 -35.5946 -35.5030 -35.3193
    11.0681  11.3502  12.0399  12.4848  12.5575  12.7042  12.9364  13.1872
    13.4676  13.6518  13.9021  14.2145  14.3434  14.4846  14.7147  14.7984
    15.0108  15.2044  16.1904  16.8458  17.2321  17.3783  18.0752  19.7383
    25.8651  26.5182  27.5548  27.9568  28.7115  29.3041  29.8405  30.4181
    37.1351  37.5217  38.4475  38.5690  40.0566  40.1495  40.1712  40.5737
    45.8979  45.9098  47.7263  47.8827  48.7042  48.7155  49.6200  50.0139
    50.0669  50.5772

     occupation numbers 
     1.0000   1.0000   1.0000   1.0000   1.0000   1.0000   1.0000   1.0000
     1.0000   1.0000   1.0000   1.0000   1.0000   1.0000   1.0000   1.0000
     1.0000   1.0000   1.0000   1.0000   1.0000   1.0000   1.0000   1.0000
     1.0000   1.0000  -0.0203  -0.0000  -0.0000  -0.0000  -0.0000  -0.0000
    -0.0000  -0.0000  -0.0000  -0.0000  -0.0000  -0.0000  -0.0000  -0.0000
    -0.0000  -0.0000  -0.0000  -0.0000  -0.0000  -0.0000  -0.0000  -0.0000
    -0.0000  -0.0000  -0.0000  -0.0000  -0.0000  -0.0000  -0.0000  -0.0000
    -0.0000  -0.0000

          k = 0.0000 0.4444 0.1000 (  1307 PWs)   bands (ev):

   -72.5877 -69.3698 -38.7577 -38.6865 -38.4442 -35.5944 -35.5036 -35.3191
    10.9816  11.3898  11.7017  12.5018  12.6393  12.9336  13.2069  13.2585
    13.7017  13.7049  13.7464  13.9473  14.6349  14.6594  14.7266  14.9156
    15.0793  15.0990  16.1010  16.9714  17.3038  17.3170  17.9861  19.5809
    23.9215  24.6895  26.4404  27.0731  30.0604  30.4892  32.4466  32.8877
    37.3584  37.7288  38.4238  38.5308  39.7815  39.8436  40.3553  40.7511
    45.7834  45.8278  45.8476  46.1475  47.9712  48.0848  48.1305  48.5425
    52.3755  52.7615

     occupation numbers 
     1.0000   1.0000   1.0000   1.0000   1.0000   1.0000   1.0000   1.0000
     1.0000   1.0000   1.0000   1.0000   1.0000   1.0000   1.0000   1.0000
     1.0000   1.0000   1.0000   1.0000   1.0000   1.0000   1.0000   1.0000
     1.0000   1.0000  -0.0255  -0.0000  -0.0000  -0.0000  -0.0000  -0.0000
    -0.0000  -0.0000  -0.0000  -0.0000  -0.0000  -0.0000  -0.0000  -0.0000
    -0.0000  -0.0000  -0.0000  -0.0000  -0.0000  -0.0000  -0.0000  -0.0000
    -0.0000  -0.0000  -0.0000  -0.0000  -0.0000  -0.0000  -0.0000  -0.0000
    -0.0000  -0.0000

          k = 0.0000 0.4444 0.2000 (  1307 PWs)   bands (ev):

   -72.5877 -69.3698 -38.7588 -38.6862 -38.4440 -35.5940 -35.5050 -35.3189
    10.8241  11.3216  11.4800  12.1533  12.8749  13.3047  13.4464  13.6448
    13.7970  13.8676  13.9386  14.3734  14.5851  14.8962  14.9816  15.0034
    15.1825  15.2470  15.8138  17.0668  17.2263  17.4813  17.5171  18.9602
    22.2219  23.2190  24.2525  25.0717  33.4499  33.7026  35.6655  35.8797
    38.0158  38.3262  38.4527  38.5527  39.3076  39.4324  40.8200  41.2140
    43.6281  44.0411  44.9973  45.0702  45.9530  46.3617  46.3766  46.7466
    50.0727  50.3244

     occupation numbers 
     1.0000   1.0000   1.0000   1.0000   1.0000   1.0000   1.0000   1.0000
     1.0000   1.0000   1.0000   1.0000   1.0000   1.0000   1.0000   1.0000
     1.0000   1.0000   1.0000   1.0000   1.0000   1.0000   1.0000   1.0000
     1.0000   1.0000   1.0330  -0.0000  -0.0000  -0.0000  -0.0000  -0.0000
    -0.0000  -0.0000  -0.0000  -0.0000  -0.0000  -0.0000  -0.0000  -0.0000
    -0.0000  -0.0000  -0.0000  -0.0000  -0.0000  -0.0000  -0.0000  -0.0000
    -0.0000  -0.0000  -0.0000  -0.0000  -0.0000  -0.0000  -0.0000  -0.0000
    -0.0000  -0.0000

          k = 0.0000 0.4444 0.3000 (  1298 PWs)   bands (ev):

   -72.5875 -69.3697 -38.7596 -38.6858 -38.4436 -35.5935 -35.5061 -35.3185
    10.7227  11.1059  11.5982  11.8621  13.0801  13.3063  13.3533  13.4651
    14.2124  14.4869  14.5927  14.7548  14.9870  15.0505  15.2096  15.2306
    15.3165  15.3191  15.5284  16.3953  16.7565  17.4222  17.5852  18.0084
    21.8057  22.7353  22.8754  23.7725  36.4041  36.4823  37.2234  37.4549
    38.9940  39.0472  39.1321  39.2862  40.0912  40.5725  40.7266  41.3166
    42.7786  42.8678  42.9091  43.2041  43.9828  44.0977  44.5383  44.5759
    48.7650  49.0186

     occupation numbers 
     1.0000   1.0000   1.0000   1.0000   1.0000   1.0000   1.0000   1.0000
     1.0000   1.0000   1.0000   1.0000   1.0000   1.0000   1.0000   1.0000
     1.0000   1.0000   1.0000   1.0000   1.0000   1.0000   1.0000   1.0000
     1.0000   1.0000   1.0000  -0.0000  -0.0000  -0.0000  -0.0000  -0.0000
    -0.0000  -0.0000  -0.0000  -0.0000  -0.0000  -0.0000  -0.0000  -0.0000
    -0.0000  -0.0000  -0.0000  -0.0000  -0.0000  -0.0000  -0.0000  -0.0000
    -0.0000  -0.0000  -0.0000  -0.0000  -0.0000  -0.0000  -0.0000  -0.0000
    -0.0000  -0.0000

          k = 0.1111 0.1111 0.0000 (  1315 PWs)   bands (ev):

   -72.6071 -69.3915 -38.7741 -38.4892 -38.4870 -35.5228 -35.3703 -35.3676
     7.6366   7.7160  11.1617  11.7853  12.2748  12.8594  13.1604  13.5823
    13.6066  14.2585  14.3838  14.3840  14.5194  14.6210  14.9911  15.1941
    15.3280  15.5159  16.1403  16.3439  17.6034  17.7476  19.7874  20.4420
    25.1518  26.0923  28.1053  28.4614  29.0053  29.3315  37.8075  37.8316
    38.6023  38.8617  39.5413  39.6956  39.9467  40.0980  40.5345  40.5507
    42.1032  42.5136  47.8433  48.0780  48.2805  48.5404  48.6980  48.7982
    48.8862  48.9453

     occupation numbers 
     1.0000   1.0000   1.0000   1.0000   1.0000   1.0000   1.0000   1.0000
     1.0000   1.0000   1.0000   1.0000   1.0000   1.0000   1.0000   1.0000
     1.0000   1.0000   1.0000   1.0000   1.0000   1.0000   1.0000   1.0000
     1.0000   1.0000  -0.0348  -0.0003  -0.0000  -0.0000  -0.0000  -0.0000
    -0.0000  -0.0000  -0.0000  -0.0000  -0.0000  -0.0000  -0.0000  -0.0000
    -0.0000  -0.0000  -0.0000  -0.0000  -0.0000  -0.0000  -0.0000  -0.0000
    -0.0000  -0.0000  -0.0000  -0.0000  -0.0000  -0.0000  -0.0000  -0.0000
    -0.0000  -0.0000

          k = 0.1111 0.1111 0.1000 (  1314 PWs)   bands (ev):

   -72.6070 -69.3915 -38.7747 -38.4890 -38.4873 -35.5236 -35.3701 -35.3679
     7.8843   7.9655  11.2129  11.8563  12.2662  12.9299  13.1405  13.5935
    13.6224  14.1466  14.2368  14.3798  14.5562  14.5976  14.9981  15.1750
    15.2970  15.3743  15.7566  16.4555  17.4560  17.7457  18.5444  19.5477
    26.8612  27.6025  28.4364  28.8107  29.3450  29.6855  36.2771  36.4910
    37.3668  37.6423  38.7624  39.0353  41.2904  41.4021  42.2080  42.5911
    42.8251  42.9889  45.9863  46.1260  46.3675  46.7010  48.6708  49.2673
    50.6987  50.7692

     occupation numbers 
     1.0000   1.0000   1.0000   1.0000   1.0000   1.0000   1.0000   1.0000
     1.0000   1.0000   1.0000   1.0000   1.0000   1.0000   1.0000   1.0000
     1.0000   1.0000   1.0000   1.0000   1.0000   1.0000   1.0000   1.0000
     1.0000   1.0000   1.0264  -0.0000  -0.0000  -0.0000  -0.0000  -0.0000
    -0.0000  -0.0000  -0.0000  -0.0000  -0.0000  -0.0000  -0.0000  -0.0000
    -0.0000  -0.0000  -0.0000  -0.0000  -0.0000  -0.0000  -0.0000  -0.0000
    -0.0000  -0.0000  -0.0000  -0.0000  -0.0000  -0.0000  -0.0000  -0.0000
    -0.0000  -0.0000

          k = 0.1111 0.1111 0.2000 (  1315 PWs)   bands (ev):

   -72.6070 -69.3914 -38.7763 -38.4889 -38.4874 -35.5258 -35.3700 -35.3680
     8.5980   8.6884  11.2331  12.0230  12.0565  12.9934  13.1188  13.5705
    13.6651  13.7724  14.1206  14.3058  14.4806  14.7433  14.8955  15.0089
    15.0371  15.1906  15.3681  16.5172  16.7512  17.1103  17.6824  18.3685
    29.3565  29.6764  29.7578  30.1006  30.7893  31.2519  34.2769  34.6615
    35.0421  35.3552  39.2292  39.4487  42.2033  42.2465  42.2799  42.3593
    42.8266  43.2752  45.3808  45.5189  46.5112  46.8430  46.9460  47.6189
    51.5674  51.7716

     occupation numbers 
     1.0000   1.0000   1.0000   1.0000   1.0000   1.0000   1.0000   1.0000
     1.0000   1.0000   1.0000   1.0000   1.0000   1.0000   1.0000   1.0000
     1.0000   1.0000   1.0000   1.0000   1.0000   1.0000   1.0000   1.0000
     1.0000   1.0000   1.0000  -0.0000  -0.0000  -0.0000  -0.0000  -0.0000
    -0.0000  -0.0000  -0.0000  -0.0000  -0.0000  -0.0000  -0.0000  -0.0000
    -0.0000  -0.0000  -0.0000  -0.0000  -0.0000  -0.0000  -0.0000  -0.0000
    -0.0000  -0.0000  -0.0000  -0.0000  -0.0000  -0.0000  -0.0000  -0.0000
    -0.0000  -0.0000

          k = 0.1111 0.1111 0.3000 (  1304 PWs)   bands (ev):

   -72.6068 -69.3912 -38.7774 -38.4886 -38.4873 -35.5274 -35.3696 -35.3679
     9.6604   9.7805  10.7463  11.1308  12.3409  12.7176  13.2827  13.3311
    13.4631  14.0981  14.1471  14.1995  14.3914  14.5492  14.5691  14.7879
    15.1010  15.2691  15.2818  15.6419  16.5854  16.8017  17.4240  17.9280
    30.6803  31.0333  31.2612  31.5680  32.4630  33.0059  33.0430  33.4378
    34.4217  34.7951  38.4993  38.7358  40.0073  40.0892  41.2226  41.4708
    43.4152  43.8939  44.9226  45.4328  47.6145  47.7741  49.3930  49.5537
    49.6157  49.8567

     occupation numbers 
     1.0000   1.0000   1.0000   1.0000   1.0000   1.0000   1.0000   1.0000
     1.0000   1.0000   1.0000   1.0000   1.0000   1.0000   1.0000   1.0000
     1.0000   1.0000   1.0000   1.0000   1.0000   1.0000   1.0000   1.0000
     1.0000   1.0000   1.0000   1.0020  -0.0000  -0.0000  -0.0000  -0.0000
    -0.0000  -0.0000  -0.0000  -0.0000  -0.0000  -0.0000  -0.0000  -0.0000
    -0.0000  -0.0000  -0.0000  -0.0000  -0.0000  -0.0000  -0.0000  -0.0000
    -0.0000  -0.0000  -0.0000  -0.0000  -0.0000  -0.0000  -0.0000  -0.0000
    -0.0000  -0.0000

          k = 0.1111 0.2222 0.0000 (  1325 PWs)   bands (ev):

   -72.5994 -69.3829 -38.7675 -38.5568 -38.4821 -35.5150 -35.4470 -35.3621
     8.5299   8.6241  11.5517  12.1120  12.6890  12.8781  13.1429  13.5501
    13.7284  13.8607  14.0273  14.1541  14.4955  14.6218  14.6888  15.0566
    15.4235  15.4420  15.6838  16.5168  17.3522  17.5136  21.4450  22.1374
    24.4117  25.0198  25.7339  26.4776  29.7676  30.1545  35.2871  35.6253
    36.1533  36.4540  39.5119  39.7211  40.0847  40.2214  40.2792  40.4099
    45.3594  45.9502  46.2826  46.6780  48.7562  48.9273  49.2230  49.2614
    50.8423  51.0118

     occupation numbers 
     1.0000   1.0000   1.0000   1.0000   1.0000   1.0000   1.0000   1.0000
     1.0000   1.0000   1.0000   1.0000   1.0000   1.0000   1.0000   1.0000
     1.0000   1.0000   1.0000   1.0000   1.0000   1.0000   1.0000   1.0000
     1.0000   1.0000   1.0065  -0.0000  -0.0000  -0.0000  -0.0000  -0.0000
    -0.0000  -0.0000  -0.0000  -0.0000  -0.0000  -0.0000  -0.0000  -0.0000
    -0.0000  -0.0000  -0.0000  -0.0000  -0.0000  -0.0000  -0.0000  -0.0000
    -0.0000  -0.0000  -0.0000  -0.0000  -0.0000  -0.0000  -0.0000  -0.0000
    -0.0000  -0.0000

          k = 0.1111 0.2222 0.1000 (  1313 PWs)   bands (ev):

   -72.5993 -69.3828 -38.7679 -38.5564 -38.4820 -35.5156 -35.4466 -35.3620
     8.7533   8.8544  11.6172  12.1558  12.7020  12.8952  13.1890  13.4064
    13.6848  13.7672  14.0029  14.2684  14.4296  14.6091  14.6919  14.9863
    15.3495  15.3975  15.6269  16.5296  17.3014  17.4937  19.8837  20.8447
    24.9365  25.4816  27.5056  28.1433  30.0611  30.4504  33.0686  33.4805
    37.5311  37.7481  38.6022  38.8402  40.2559  40.4845  41.9057  42.0633
    45.3990  45.8117  46.2723  46.6201  47.4383  47.7209  49.2745  49.4670
    50.1374  50.3403

     occupation numbers 
     1.0000   1.0000   1.0000   1.0000   1.0000   1.0000   1.0000   1.0000
     1.0000   1.0000   1.0000   1.0000   1.0000   1.0000   1.0000   1.0000
     1.0000   1.0000   1.0000   1.0000   1.0000   1.0000   1.0000   1.0000
     1.0000   1.0000   1.0013  -0.0000  -0.0000  -0.0000  -0.0000  -0.0000
    -0.0000  -0.0000  -0.0000  -0.0000  -0.0000  -0.0000  -0.0000  -0.0000
    -0.0000  -0.0000  -0.0000  -0.0000  -0.0000  -0.0000  -0.0000  -0.0000
    -0.0000  -0.0000  -0.0000  -0.0000  -0.0000  -0.0000  -0.0000  -0.0000
    -0.0000  -0.0000

          k = 0.1111 0.2222 0.2000 (  1308 PWs)   bands (ev):

   -72.5992 -69.3827 -38.7693 -38.5561 -38.4819 -35.5175 -35.4462 -35.3619
     9.3856   9.5161  11.6455  12.3160  12.4802  12.9041  13.1246  13.3554
    13.5715  13.7289  13.9463  14.2578  14.3192  14.4312  14.8482  14.9699
    15.1632  15.2344  15.5195  16.5690  17.1816  17.4868  17.7753  19.1596
    25.8410  26.3901  30.4120  30.7949  30.8102  31.2976  31.3942  31.8510
    35.3937  35.7064  40.6194  40.7432  41.0246  41.1527  43.4761  43.6906
    44.1610  44.3978  45.0742  45.4011  46.0182  46.2863  48.9629  49.3708
    49.4308  49.8717

     occupation numbers 
     1.0000   1.0000   1.0000   1.0000   1.0000   1.0000   1.0000   1.0000
     1.0000   1.0000   1.0000   1.0000   1.0000   1.0000   1.0000   1.0000
     1.0000   1.0000   1.0000   1.0000   1.0000   1.0000   1.0000   1.0000
     1.0000   1.0000   1.0000  -0.0000  -0.0000  -0.0000  -0.0000  -0.0000
    -0.0000  -0.0000  -0.0000  -0.0000  -0.0000  -0.0000  -0.0000  -0.0000
    -0.0000  -0.0000  -0.0000  -0.0000  -0.0000  -0.0000  -0.0000  -0.0000
    -0.0000  -0.0000  -0.0000  -0.0000  -0.0000  -0.0000  -0.0000  -0.0000
    -0.0000  -0.0000

          k = 0.1111 0.2222 0.3000 (  1301 PWs)   bands (ev):

   -72.5991 -69.3826 -38.7703 -38.5559 -38.4818 -35.5189 -35.4460 -35.3618
    10.2858  10.4953  11.2035  11.6826  12.6065  12.8314  13.0549  13.3533
    13.5419  13.8025  14.0178  14.0779  14.2789  14.4567  14.7213  14.8374
    14.9694  15.4689  15.5180  16.2841  16.6631  16.9785  17.6274  18.1244
    27.1098  27.6058  28.8551  29.4655  31.8411  32.1329  33.5383  33.9741
    35.1059  35.4619  39.1465  39.3169  41.3607  41.5286  42.3457  42.6235
    44.4682  44.5023  45.3036  45.7110  46.4988  46.7560  48.5495  48.9534
    49.9637  50.4003

     occupation numbers 
     1.0000   1.0000   1.0000   1.0000   1.0000   1.0000   1.0000   1.0000
     1.0000   1.0000   1.0000   1.0000   1.0000   1.0000   1.0000   1.0000
     1.0000   1.0000   1.0000   1.0000   1.0000   1.0000   1.0000   1.0000
     1.0000   1.0000   1.0000  -0.0022  -0.0000  -0.0000  -0.0000  -0.0000
    -0.0000  -0.0000  -0.0000  -0.0000  -0.0000  -0.0000  -0.0000  -0.0000
    -0.0000  -0.0000  -0.0000  -0.0000  -0.0000  -0.0000  -0.0000  -0.0000
    -0.0000  -0.0000  -0.0000  -0.0000  -0.0000  -0.0000  -0.0000  -0.0000
    -0.0000  -0.0000

          k = 0.1111 0.3333 0.0000 (  1314 PWs)   bands (ev):

   -72.5905 -69.3730 -38.7597 -38.6335 -38.4752 -35.5341 -35.5058 -35.3543
     9.8347   9.9915  12.0180  12.3873  12.5604  12.9791  13.1438  13.3391
    13.4637  13.6180  14.1479  14.2265  14.2343  14.4331  14.7788  15.1299
    15.1940  15.5509  15.6153  16.8674  17.0893  17.3692  21.0590  21.9168
    23.6103  24.2877  26.3683  27.0059  31.3956  31.7988  32.0139  32.4990
    32.7515  33.1398  38.4656  38.7044  40.8549  41.0326  41.1357  41.3269
    44.6968  45.1754  47.6309  47.8087  47.9654  48.1582  49.9356  50.0842
    51.3868  51.7011

     occupation numbers 
     1.0000   1.0000   1.0000   1.0000   1.0000   1.0000   1.0000   1.0000
     1.0000   1.0000   1.0000   1.0000   1.0000   1.0000   1.0000   1.0000
     1.0000   1.0000   1.0000   1.0000   1.0000   1.0000   1.0000   1.0000
     1.0000   1.0001   1.0009  -0.0000  -0.0000  -0.0000  -0.0000  -0.0000
    -0.0000  -0.0000  -0.0000  -0.0000  -0.0000  -0.0000  -0.0000  -0.0000
    -0.0000  -0.0000  -0.0000  -0.0000  -0.0000  -0.0000  -0.0000  -0.0000
    -0.0000  -0.0000  -0.0000  -0.0000  -0.0000  -0.0000  -0.0000  -0.0000
    -0.0000  -0.0000

          k = 0.1111 0.3333 0.1000 (  1308 PWs)   bands (ev):

   -72.5905 -69.3729 -38.7600 -38.6334 -38.4750 -35.5340 -35.5063 -35.3541
     9.9822  10.1712  12.0686  12.2260  12.6958  13.1000  13.1052  13.2701
    13.4462  13.7171  13.8569  14.2612  14.2751  14.6748  14.7409  15.0578
    15.2296  15.4173  15.6770  16.8526  17.1030  17.4127  20.6253  21.4969
    22.4841  23.3060  28.5444  29.0406  29.6687  30.2247  31.6441  32.0469
    35.3712  35.6899  37.9433  38.1488  40.2854  40.5858  41.1326  41.3287
    46.1715  46.5594  46.6600  46.9332  47.3143  47.4407  49.4215  49.6405
    52.2080  52.3792

     occupation numbers 
     1.0000   1.0000   1.0000   1.0000   1.0000   1.0000   1.0000   1.0000
     1.0000   1.0000   1.0000   1.0000   1.0000   1.0000   1.0000   1.0000
     1.0000   1.0000   1.0000   1.0000   1.0000   1.0000   1.0000   1.0000
     1.0000   1.0000   1.0055  -0.0000  -0.0000  -0.0000  -0.0000  -0.0000
    -0.0000  -0.0000  -0.0000  -0.0000  -0.0000  -0.0000  -0.0000  -0.0000
    -0.0000  -0.0000  -0.0000  -0.0000  -0.0000  -0.0000  -0.0000  -0.0000
    -0.0000  -0.0000  -0.0000  -0.0000  -0.0000  -0.0000  -0.0000  -0.0000
    -0.0000  -0.0000

          k = 0.1111 0.3333 0.2000 (  1306 PWs)   bands (ev):

   -72.5904 -69.3729 -38.7614 -38.6330 -38.4749 -35.5336 -35.5081 -35.3540
    10.3593  10.6646  11.7455  12.4937  12.6421  12.9892  13.2874  13.4119
    13.6011  13.6391  13.8754  13.9924  14.3547  14.6665  14.8839  15.1844
    15.1977  15.2396  15.6555  16.7361  17.3482  17.4169  18.7355  19.8507
    22.7577  23.5901  27.3374  27.9649  31.6742  32.0195  32.7412  33.1724
    36.3634  36.5696  38.1063  38.3179  40.6135  40.8621  41.0505  41.3475
    45.1055  45.3284  45.3580  45.6236  46.8687  47.1215  49.3275  49.5734
    51.7679  51.9078

     occupation numbers 
     1.0000   1.0000   1.0000   1.0000   1.0000   1.0000   1.0000   1.0000
     1.0000   1.0000   1.0000   1.0000   1.0000   1.0000   1.0000   1.0000
     1.0000   1.0000   1.0000   1.0000   1.0000   1.0000   1.0000   1.0000
     1.0000   1.0000   1.0030  -0.0000  -0.0000  -0.0000  -0.0000  -0.0000
    -0.0000  -0.0000  -0.0000  -0.0000  -0.0000  -0.0000  -0.0000  -0.0000
    -0.0000  -0.0000  -0.0000  -0.0000  -0.0000  -0.0000  -0.0000  -0.0000
    -0.0000  -0.0000  -0.0000  -0.0000  -0.0000  -0.0000  -0.0000  -0.0000
    -0.0000  -0.0000

          k = 0.1111 0.3333 0.3000 (  1304 PWs)   bands (ev):

   -72.5903 -69.3728 -38.7622 -38.6329 -38.4749 -35.5334 -35.5093 -35.3539
    10.7942  11.3295  11.3588  12.0621  12.8972  13.2984  13.3349  13.4905
    13.5036  13.7464  13.9260  14.1353  14.3788  14.6363  14.8263  14.8414
    15.0538  15.6353  15.8521  16.7130  16.9564  17.2791  17.7699  18.4851
    23.8221  24.5612  25.4483  26.2219  33.1123  33.3401  34.6776  35.0249
    36.2245  36.5470  39.2231  39.2513  40.4029  40.6154  40.7422  41.2150
    44.2324  44.5955  44.7286  45.0264  45.5621  45.7958  48.0109  48.2234
    51.6080  51.7629

     occupation numbers 
     1.0000   1.0000   1.0000   1.0000   1.0000   1.0000   1.0000   1.0000
     1.0000   1.0000   1.0000   1.0000   1.0000   1.0000   1.0000   1.0000
     1.0000   1.0000   1.0000   1.0000   1.0000   1.0000   1.0000   1.0000
     1.0000   1.0016   0.9964  -0.0000  -0.0000  -0.0000  -0.0000  -0.0000
    -0.0000  -0.0000  -0.0000  -0.0000  -0.0000  -0.0000  -0.0000  -0.0000
    -0.0000  -0.0000  -0.0000  -0.0000  -0.0000  -0.0000  -0.0000  -0.0000
    -0.0000  -0.0000  -0.0000  -0.0000  -0.0000  -0.0000  -0.0000  -0.0000
    -0.0000  -0.0000

          k = 0.1111 0.4444 0.0000 (  1307 PWs)   bands (ev):

   -72.5847 -69.3665 -38.7545 -38.6834 -38.4705 -35.5909 -35.4997 -35.3490
    11.1830  11.5250  12.0609  12.3353  12.5911  12.6918  12.7756  13.0837
    13.3693  13.6750  14.0124  14.2438  14.3804  14.5099  14.5337  14.8752
    15.6284  15.7012  16.2354  16.7330  17.2471  17.5727  18.2506  19.8096
    26.1248  26.7597  27.6882  28.0916  28.9369  29.5082  29.9656  30.5150
    33.4431  33.8320  35.8945  36.2266  42.3553  42.4644  42.6804  42.8174
    44.1050  44.3609  44.9713  45.2142  48.1012  48.5070  50.3823  50.9707
    51.5098  51.5825

     occupation numbers 
     1.0000   1.0000   1.0000   1.0000   1.0000   1.0000   1.0000   1.0000
     1.0000   1.0000   1.0000   1.0000   1.0000   1.0000   1.0000   1.0000
     1.0000   1.0000   1.0000   1.0000   1.0000   1.0000   1.0000   1.0000
     1.0013   1.0098  -0.0082  -0.0000  -0.0000  -0.0000  -0.0000  -0.0000
    -0.0000  -0.0000  -0.0000  -0.0000  -0.0000  -0.0000  -0.0000  -0.0000
    -0.0000  -0.0000  -0.0000  -0.0000  -0.0000  -0.0000  -0.0000  -0.0000
    -0.0000  -0.0000  -0.0000  -0.0000  -0.0000  -0.0000  -0.0000  -0.0000
    -0.0000  -0.0000

          k = 0.1111 0.4444 0.1000 (  1311 PWs)   bands (ev):

   -72.5847 -69.3665 -38.7552 -38.6834 -38.4705 -35.5908 -35.5005 -35.3490
    11.1250  11.5818  11.8147  12.5158  12.6306  12.6533  13.0569  13.1526
    13.5212  13.6829  13.9580  14.0949  14.1994  14.5844  14.8896  15.0673
    15.5027  15.6285  16.1951  16.8253  17.3181  17.6393  18.2405  19.7179
    24.1003  24.8352  26.6349  27.2553  30.2229  30.6304  32.5830  33.0181
    33.6556  34.0401  36.0425  36.3628  40.7457  40.8278  41.8056  42.1059
    44.8525  45.0825  45.5673  45.8217  48.6818  49.0100  50.3741  50.5002
    51.6033  52.0308

     occupation numbers 
     1.0000   1.0000   1.0000   1.0000   1.0000   1.0000   1.0000   1.0000
     1.0000   1.0000   1.0000   1.0000   1.0000   1.0000   1.0000   1.0000
     1.0000   1.0000   1.0000   1.0000   1.0000   1.0000   1.0000   1.0000
     1.0000   1.0013  -0.0187  -0.0000  -0.0000  -0.0000  -0.0000  -0.0000
    -0.0000  -0.0000  -0.0000  -0.0000  -0.0000  -0.0000  -0.0000  -0.0000
    -0.0000  -0.0000  -0.0000  -0.0000  -0.0000  -0.0000  -0.0000  -0.0000
    -0.0000  -0.0000  -0.0000  -0.0000  -0.0000  -0.0000  -0.0000  -0.0000
    -0.0000  -0.0000

          k = 0.1111 0.4444 0.2000 (  1308 PWs)   bands (ev):

   -72.5847 -69.3664 -38.7561 -38.6832 -38.4704 -35.5905 -35.5018 -35.3489
    11.0050  11.5059  11.7046  12.3367  12.7616  13.0114  13.4451  13.5419
    13.6880  13.7729  13.8259  13.9357  14.4324  14.7792  15.2031  15.2374
    15.3037  15.5890  16.1623  16.7858  17.5328  17.8091  18.0265  19.2973
    22.3161  23.2731  24.4199  25.2110  33.3034  33.5173  34.6138  35.0166
    35.4743  35.6655  36.6544  37.0592  38.8902  39.0065  40.2877  40.6923
    45.0453  45.3458  46.1821  46.3834  47.1390  47.3570  49.1591  49.4127
    50.4624  50.7295

     occupation numbers 
     1.0000   1.0000   1.0000   1.0000   1.0000   1.0000   1.0000   1.0000
     1.0000   1.0000   1.0000   1.0000   1.0000   1.0000   1.0000   1.0000
     1.0000   1.0000   1.0000   1.0000   1.0000   1.0000   1.0000   1.0000
     1.0000   1.0003  -0.0297  -0.0000  -0.0000  -0.0000  -0.0000  -0.0000
    -0.0000  -0.0000  -0.0000  -0.0000  -0.0000  -0.0000  -0.0000  -0.0000
    -0.0000  -0.0000  -0.0000  -0.0000  -0.0000  -0.0000  -0.0000  -0.0000
    -0.0000  -0.0000  -0.0000  -0.0000  -0.0000  -0.0000  -0.0000  -0.0000
    -0.0000  -0.0000

          k = 0.1111 0.4444 0.3000 (  1309 PWs)   bands (ev):

   -72.5846 -69.3664 -38.7570 -38.6829 -38.4705 -35.5901 -35.5031 -35.3489
    10.9186  11.3274  11.8436  12.0690  12.9985  13.1823  13.3987  13.5406
    14.0081  14.0312  14.0935  14.2952  14.5459  15.0372  15.1269  15.1889
    15.3289  15.5963  16.4996  16.5992  17.2939  17.6861  18.0446  18.5450
    21.8743  22.8497  22.9063  23.8538  34.7456  34.8825  35.8535  35.9575
    37.3910  37.4928  37.7100  37.9686  38.8244  39.3585  39.5668  39.9428
    43.9968  44.2315  45.1985  45.6294  45.8762  46.0937  46.1040  46.4017
    50.6926  50.8602

     occupation numbers 
     1.0000   1.0000   1.0000   1.0000   1.0000   1.0000   1.0000   1.0000
     1.0000   1.0000   1.0000   1.0000   1.0000   1.0000   1.0000   1.0000
     1.0000   1.0000   1.0000   1.0000   1.0000   1.0000   1.0000   1.0000
     1.0000   1.0004  -0.0000  -0.0000  -0.0000  -0.0000  -0.0000  -0.0000
    -0.0000  -0.0000  -0.0000  -0.0000  -0.0000  -0.0000  -0.0000  -0.0000
    -0.0000  -0.0000  -0.0000  -0.0000  -0.0000  -0.0000  -0.0000  -0.0000
    -0.0000  -0.0000  -0.0000  -0.0000  -0.0000  -0.0000  -0.0000  -0.0000
    -0.0000  -0.0000

          k = 0.2222 0.2222 0.0000 (  1315 PWs)   bands (ev):

   -72.5917 -69.3743 -38.7606 -38.5517 -38.5477 -35.5069 -35.4415 -35.4362
     9.3251   9.4599  11.7417  12.5271  12.5648  12.8772  12.9544  13.5409
    13.7756  13.8641  13.9460  14.1322  14.1632  14.4743  14.7402  14.8474
    15.5106  15.8382  15.9229  16.6474  17.0180  17.5001  22.7087  23.3748
    24.5962  25.0855  25.6227  26.4162  27.1852  27.7150  35.6215  35.7671
    36.0327  36.1860  36.4647  36.7246  36.7396  36.8575  42.3215  42.9045
    44.1901  44.3431  47.1798  47.3770  47.5535  47.9182  52.6944  52.6947
    53.0949  53.1073

     occupation numbers 
     1.0000   1.0000   1.0000   1.0000   1.0000   1.0000   1.0000   1.0000
     1.0000   1.0000   1.0000   1.0000   1.0000   1.0000   1.0000   1.0000
     1.0000   1.0000   1.0000   1.0000   1.0000   1.0000   1.0000   1.0000
     1.0000   1.0159   0.7456  -0.0000  -0.0000  -0.0000  -0.0000  -0.0000
    -0.0000  -0.0000  -0.0000  -0.0000  -0.0000  -0.0000  -0.0000  -0.0000
    -0.0000  -0.0000  -0.0000  -0.0000  -0.0000  -0.0000  -0.0000  -0.0000
    -0.0000  -0.0000  -0.0000  -0.0000  -0.0000  -0.0000  -0.0000  -0.0000
    -0.0000  -0.0000

          k = 0.2222 0.2222 0.1000 (  1320 PWs)   bands (ev):

   -72.5917 -69.3742 -38.7612 -38.5516 -38.5479 -35.5077 -35.4414 -35.4365
     9.5345   9.6779  11.8471  12.5484  12.6029  12.8222  12.9461  13.5679
    13.6338  13.7953  13.8263  14.1634  14.2342  14.4731  14.7595  14.8924
    15.3658  15.8255  15.8471  16.6931  17.1155  17.3310  20.9406  21.8430
    24.9428  25.4520  26.8991  27.5088  28.3216  28.8585  33.4830  33.9254
    33.9394  34.2882  37.8491  38.0647  39.0671  39.3016  43.3704  43.8917
    44.3797  44.5268  45.2047  45.4864  49.0399  49.3515  49.6984  49.8442
    51.1409  51.2283

     occupation numbers 
     1.0000   1.0000   1.0000   1.0000   1.0000   1.0000   1.0000   1.0000
     1.0000   1.0000   1.0000   1.0000   1.0000   1.0000   1.0000   1.0000
     1.0000   1.0000   1.0000   1.0000   1.0000   1.0000   1.0000   1.0000
     1.0000   1.0272   1.0044  -0.0000  -0.0000  -0.0000  -0.0000  -0.0000
    -0.0000  -0.0000  -0.0000  -0.0000  -0.0000  -0.0000  -0.0000  -0.0000
    -0.0000  -0.0000  -0.0000  -0.0000  -0.0000  -0.0000  -0.0000  -0.0000
    -0.0000  -0.0000  -0.0000  -0.0000  -0.0000  -0.0000  -0.0000  -0.0000
    -0.0000  -0.0000

          k = 0.2222 0.2222 0.2000 (  1301 PWs)   bands (ev):

   -72.5915 -69.3741 -38.7621 -38.5510 -38.5478 -35.5091 -35.4407 -35.4363
    10.1163  10.2976  12.0360  12.5867  12.6074  12.6856  12.8723  13.4021
    13.6338  13.7317  13.8382  14.0770  14.1926  14.3838  14.6142  15.0146
    15.3824  15.4534  15.8957  16.7404  16.9392  17.4377  18.7242  19.9810
    25.9019  26.4380  27.6345  28.1514  31.1769  31.7051  31.7780  31.8523
    32.2235  32.2637  38.8321  39.0305  42.3131  42.4492  43.0495  43.3164
    44.1538  44.4430  44.9467  45.0761  47.2149  47.6301  49.2145  49.3678
    50.0087  50.4880

     occupation numbers 
     1.0000   1.0000   1.0000   1.0000   1.0000   1.0000   1.0000   1.0000
     1.0000   1.0000   1.0000   1.0000   1.0000   1.0000   1.0000   1.0000
     1.0000   1.0000   1.0000   1.0000   1.0000   1.0000   1.0000   1.0000
     1.0000   1.0000   0.8731  -0.0000  -0.0000  -0.0000  -0.0000  -0.0000
    -0.0000  -0.0000  -0.0000  -0.0000  -0.0000  -0.0000  -0.0000  -0.0000
    -0.0000  -0.0000  -0.0000  -0.0000  -0.0000  -0.0000  -0.0000  -0.0000
    -0.0000  -0.0000  -0.0000  -0.0000  -0.0000  -0.0000  -0.0000  -0.0000
    -0.0000  -0.0000

          k = 0.2222 0.2222 0.3000 (  1312 PWs)   bands (ev):

   -72.5915 -69.3741 -38.7636 -38.5509 -38.5481 -35.5109 -35.4405 -35.4366
    10.9001  11.1909  11.7136  12.2109  12.6654  12.7498  12.7945  13.2192
    13.6944  13.8635  13.8687  14.0233  14.1713  14.3208  14.5442  14.6292
    14.9350  16.0111  16.0779  16.5614  16.7101  17.1014  17.9641  18.7341
    27.2961  27.7942  28.5967  28.9859  29.1609  29.7958  30.1053  30.6481
    35.7897  36.1382  39.7875  39.8006  40.1052  40.4336  41.3695  41.7892
    45.4783  45.5496  45.9268  46.0727  47.8590  48.1211  49.7580  50.2504
    50.5221  50.6122

     occupation numbers 
     1.0000   1.0000   1.0000   1.0000   1.0000   1.0000   1.0000   1.0000
     1.0000   1.0000   1.0000   1.0000   1.0000   1.0000   1.0000   1.0000
     1.0000   1.0000   1.0000   1.0000   1.0000   1.0000   1.0000   1.0000
     1.0000   0.2279   0.0018  -0.0000  -0.0000  -0.0000  -0.0000  -0.0000
    -0.0000  -0.0000  -0.0000  -0.0000  -0.0000  -0.0000  -0.0000  -0.0000
    -0.0000  -0.0000  -0.0000  -0.0000  -0.0000  -0.0000  -0.0000  -0.0000
    -0.0000  -0.0000  -0.0000  -0.0000  -0.0000  -0.0000  -0.0000  -0.0000
    -0.0000  -0.0000

          k = 0.2222 0.3333 0.0000 (  1314 PWs)   bands (ev):

[...]
    32.0095  32.4709  33.0735  33.5086  37.8875  38.1429  39.8417  40.2288
    44.5360  44.7475  46.8073  47.2657  49.6219  49.9254  51.1720  51.3592
    53.0980  53.1942

     occupation numbers 
     1.0000   1.0000   1.0000   1.0000   1.0000   1.0000   1.0000   1.0000
     1.0000   1.0000   1.0000   1.0000   1.0000   1.0000   1.0000   1.0000
     1.0000   1.0000   1.0000   1.0000   1.0000   1.0000   1.0000   1.0000
     0.4468  -0.0007  -0.0000  -0.0000  -0.0000  -0.0000  -0.0000  -0.0000
    -0.0000  -0.0000  -0.0000  -0.0000  -0.0000  -0.0000  -0.0000  -0.0000
    -0.0000  -0.0000  -0.0000  -0.0000  -0.0000  -0.0000  -0.0000  -0.0000
    -0.0000  -0.0000  -0.0000  -0.0000  -0.0000  -0.0000  -0.0000  -0.0000
    -0.0000  -0.0000

          k = 0.2222 0.4444 0.2000 (  1321 PWs)   bands (ev):

   -72.5771 -69.3580 -38.7496 -38.6755 -38.5373 -35.5814 -35.4942 -35.4246
    11.3608  11.8247  12.2063  12.2736  12.5456  12.7205  13.2708  13.2755
    13.4613  13.6122  13.9984  14.0728  14.1765  14.8872  15.2393  15.3962
    15.4345  16.2288  16.6273  17.1404  17.6589  18.5814  19.2496  20.2818
    22.6592  23.4940  24.9647  25.6693  30.2643  30.6863  32.5615  32.9089
    33.8905  34.1061  34.4706  35.0840  37.6217  37.8341  38.1711  38.5826
    47.4463  47.6510  48.9082  48.9444  49.4991  49.8971  50.2987  50.5440
    51.2482  51.4173

     occupation numbers 
     1.0000   1.0000   1.0000   1.0000   1.0000   1.0000   1.0000   1.0000
     1.0000   1.0000   1.0000   1.0000   1.0000   1.0000   1.0000   1.0000
     1.0000   1.0000   1.0000   1.0000   1.0000   1.0000   1.0000   1.0000
     1.0000  -0.0096  -0.0000  -0.0000  -0.0000  -0.0000  -0.0000  -0.0000
    -0.0000  -0.0000  -0.0000  -0.0000  -0.0000  -0.0000  -0.0000  -0.0000
    -0.0000  -0.0000  -0.0000  -0.0000  -0.0000  -0.0000  -0.0000  -0.0000
    -0.0000  -0.0000  -0.0000  -0.0000  -0.0000  -0.0000  -0.0000  -0.0000
    -0.0000  -0.0000

          k = 0.2222 0.4444 0.3000 (  1318 PWs)   bands (ev):

   -72.5771 -69.3580 -38.7506 -38.6754 -38.5371 -35.5813 -35.4954 -35.4244
    11.4116  11.8565  12.4350  12.4397  12.6236  12.8857  13.2268  13.4153
    13.5197  13.7573  13.9131  14.0165  14.2517  14.8278  14.9953  15.1287
    15.3199  16.2030  16.4415  17.6753  18.0172  18.9641  19.2375  19.9703
    22.1263  23.0490  23.2581  24.1530  31.1745  31.4761  32.4373  32.8669
    33.7856  33.9558  35.2228  35.9592  38.7320  38.8804  40.4239  40.6397
    44.7824  45.0507  46.4390  46.6935  50.1609  50.3248  50.9853  51.1120
    52.3170  52.5662

     occupation numbers 
     1.0000   1.0000   1.0000   1.0000   1.0000   1.0000   1.0000   1.0000
     1.0000   1.0000   1.0000   1.0000   1.0000   1.0000   1.0000   1.0000
     1.0000   1.0000   1.0000   1.0000   1.0000   1.0000   1.0000   1.0000
     1.0000  -0.0163  -0.0000  -0.0000  -0.0000  -0.0000  -0.0000  -0.0000
    -0.0000  -0.0000  -0.0000  -0.0000  -0.0000  -0.0000  -0.0000  -0.0000
    -0.0000  -0.0000  -0.0000  -0.0000  -0.0000  -0.0000  -0.0000  -0.0000
    -0.0000  -0.0000  -0.0000  -0.0000  -0.0000  -0.0000  -0.0000  -0.0000
    -0.0000  -0.0000

          k = 0.3333 0.3333 0.0000 (  1302 PWs)   bands (ev):

   -72.5741 -69.3548 -38.7446 -38.6190 -38.6160 -35.5175 -35.5135 -35.4882
    10.7860  11.3962  11.5394  11.9273  12.0044  12.6252  13.1048  13.1125
    13.7432  14.6474  14.6742  14.7243  14.8440  14.9349  14.9995  15.2154
    15.5037  16.6240  16.7537  16.7674  17.2540  17.4202  21.4136  21.9832
    25.5635  26.0776  26.4211  26.6060  27.7395  28.1811  31.3851  31.8586
    32.4447  32.5563  32.7996  32.9048  35.6102  36.0557  39.6083  40.0177
    40.9883  41.3030  44.8805  45.4042  50.9593  51.0502  56.8410  57.3116
    57.3240  57.3363

     occupation numbers 
     1.0000   1.0000   1.0000   1.0000   1.0000   1.0000   1.0000   1.0000
     1.0000   1.0000   1.0000   1.0000   1.0000   1.0000   1.0000   1.0000
     1.0000   1.0000   1.0000   1.0000   1.0000   1.0000   1.0000   1.0000
     1.0000  -0.0000  -0.0000  -0.0000  -0.0000  -0.0000  -0.0000  -0.0000
    -0.0000  -0.0000  -0.0000  -0.0000  -0.0000  -0.0000  -0.0000  -0.0000
    -0.0000  -0.0000  -0.0000  -0.0000  -0.0000  -0.0000  -0.0000  -0.0000
    -0.0000  -0.0000  -0.0000  -0.0000  -0.0000  -0.0000  -0.0000  -0.0000
    -0.0000  -0.0000

          k = 0.3333 0.3333 0.1000 (  1325 PWs)   bands (ev):

   -72.5743 -69.3548 -38.7457 -38.6194 -38.6164 -35.5178 -35.5139 -35.4895
    10.9493  11.5776  11.6594  11.9985  12.0315  12.7531  13.1076  13.1667
    13.6630  13.9485  14.5925  14.6139  14.8555  14.9236  14.9708  15.3781
    15.7696  16.1699  16.6866  17.2080  17.3152  17.4278  21.8455  22.4453
    23.7104  24.3924  25.9381  26.6826  30.1948  30.5667  30.9708  31.0034
    31.4211  31.4213  32.0751  32.5551  37.4913  37.8347  39.4522  39.7944
    41.0671  41.4746  46.8255  47.2892  51.1548  51.2461  53.0649  53.1979
    57.0006  57.1681

     occupation numbers 
     1.0000   1.0000   1.0000   1.0000   1.0000   1.0000   1.0000   1.0000
     1.0000   1.0000   1.0000   1.0000   1.0000   1.0000   1.0000   1.0000
     1.0000   1.0000   1.0000   1.0000   1.0000   1.0000   1.0000   1.0000
     1.0305  -0.0272  -0.0000  -0.0000  -0.0000  -0.0000  -0.0000  -0.0000
    -0.0000  -0.0000  -0.0000  -0.0000  -0.0000  -0.0000  -0.0000  -0.0000
    -0.0000  -0.0000  -0.0000  -0.0000  -0.0000  -0.0000  -0.0000  -0.0000
    -0.0000  -0.0000  -0.0000  -0.0000  -0.0000  -0.0000  -0.0000  -0.0000
    -0.0000  -0.0000

          k = 0.3333 0.3333 0.2000 (  1322 PWs)   bands (ev):

   -72.5742 -69.3547 -38.7469 -38.6192 -38.6164 -35.5176 -35.5139 -35.4910
    11.3706  11.9742  12.0599  12.1182  12.2066  13.0864  13.0967  13.2664
    13.3432  13.4101  14.3950  14.4292  14.5236  14.5913  14.8860  15.1729
    15.6646  16.4727  16.8174  17.0938  17.1912  18.3164  21.3541  22.2014
    22.9862  23.6199  26.2724  26.9042  28.6850  29.2310  29.5152  30.0196
    32.3699  32.6753  33.5209  34.0495  37.6136  37.9601  40.6772  40.9241
    43.6835  44.0133  48.7359  48.9144  50.3467  50.8267  51.7123  51.8217
    53.1837  53.2269

     occupation numbers 
     1.0000   1.0000   1.0000   1.0000   1.0000   1.0000   1.0000   1.0000
     1.0000   1.0000   1.0000   1.0000   1.0000   1.0000   1.0000   1.0000
     1.0000   1.0000   1.0000   1.0000   1.0000   1.0000   1.0000   1.0000
     1.0039  -0.0000  -0.0000  -0.0000  -0.0000  -0.0000  -0.0000  -0.0000
    -0.0000  -0.0000  -0.0000  -0.0000  -0.0000  -0.0000  -0.0000  -0.0000
    -0.0000  -0.0000  -0.0000  -0.0000  -0.0000  -0.0000  -0.0000  -0.0000
    -0.0000  -0.0000  -0.0000  -0.0000  -0.0000  -0.0000  -0.0000  -0.0000
    -0.0000  -0.0000

          k = 0.3333 0.3333 0.3000 (  1323 PWs)   bands (ev):

   -72.5742 -69.3547 -38.7480 -38.6191 -38.6164 -35.5175 -35.5140 -35.4925
    11.8330  12.1241  12.4018  12.5137  12.6220  12.8110  12.9802  13.0430
    13.5296  13.5766  14.1313  14.1750  14.1845  14.3185  14.8401  15.0777
    15.1339  16.3056  16.9750  17.1464  18.0011  19.3167  19.4615  20.5411
    24.5817  25.1976  26.5428  26.8646  27.1721  27.2452  28.1503  28.9050
    33.1870  33.3927  34.5672  35.2525  38.6836  38.9001  42.4198  42.6261
    44.3602  44.5311  48.5232  48.6442  49.4630  49.8346  52.7268  52.8070
    53.1435  53.5053

     occupation numbers 
     1.0000   1.0000   1.0000   1.0000   1.0000   1.0000   1.0000   1.0000
     1.0000   1.0000   1.0000   1.0000   1.0000   1.0000   1.0000   1.0000
     1.0000   1.0000   1.0000   1.0000   1.0000   1.0000   1.0000   1.0000
     1.0000  -0.0011  -0.0000  -0.0000  -0.0000  -0.0000  -0.0000  -0.0000
    -0.0000  -0.0000  -0.0000  -0.0000  -0.0000  -0.0000  -0.0000  -0.0000
    -0.0000  -0.0000  -0.0000  -0.0000  -0.0000  -0.0000  -0.0000  -0.0000
    -0.0000  -0.0000  -0.0000  -0.0000  -0.0000  -0.0000  -0.0000  -0.0000
    -0.0000  -0.0000

          k = 0.3333 0.4444 0.0000 (  1316 PWs)   bands (ev):

   -72.5685 -69.3485 -38.7398 -38.6668 -38.6121 -35.5713 -35.5092 -35.4826
    10.9403  11.3468  11.7109  11.7813  11.9213  12.3061  12.8537  12.9317
    14.3136  14.6944  14.9507  15.0851  15.1062  15.1752  15.4140  16.0183
    16.6426  16.6964  16.9415  17.2058  17.3526  17.9769  19.1735  20.0379
    26.5177  27.2922  28.0174  28.3972  28.6904  29.0065  29.2459  29.4201
    30.3972  30.8484  30.8594  31.1882  36.4834  36.8884  38.4669  38.8692
    39.8881  40.1614  42.3517  43.0089  53.9885  54.1049  56.4120  56.5824
    59.8117  59.8216

     occupation numbers 
     1.0000   1.0000   1.0000   1.0000   1.0000   1.0000   1.0000   1.0000
     1.0000   1.0000   1.0000   1.0000   1.0000   1.0000   1.0000   1.0000
     1.0000   1.0000   1.0000   1.0000   1.0000   1.0000   1.0000   0.1924
    -0.0000  -0.0000  -0.0000  -0.0000  -0.0000  -0.0000  -0.0000  -0.0000
    -0.0000  -0.0000  -0.0000  -0.0000  -0.0000  -0.0000  -0.0000  -0.0000
    -0.0000  -0.0000  -0.0000  -0.0000  -0.0000  -0.0000  -0.0000  -0.0000
    -0.0000  -0.0000  -0.0000  -0.0000  -0.0000  -0.0000  -0.0000  -0.0000
    -0.0000  -0.0000

          k = 0.3333 0.4444 0.1000 (  1321 PWs)   bands (ev):

   -72.5685 -69.3485 -38.7406 -38.6668 -38.6124 -35.5712 -35.5095 -35.4834
    11.0634  11.4830  11.7822  11.8645  12.0689  12.4504  12.9050  13.0008
    14.1529  14.2971  14.7588  14.7680  14.9596  15.3129  15.4732  15.6378
    16.2599  16.7491  17.1682  17.2392  17.6153  18.4719  19.6088  20.4610
    25.6154  26.1671  26.8331  27.4772  28.1011  28.6218  29.0380  29.5927
    31.2424  31.4517  31.9743  32.4842  36.6260  36.9820  37.3571  37.8168
    41.6444  41.9114  44.1758  44.7652  54.0818  54.1992  54.6914  54.8693
    56.7397  56.8826

     occupation numbers 
     1.0000   1.0000   1.0000   1.0000   1.0000   1.0000   1.0000   1.0000
     1.0000   1.0000   1.0000   1.0000   1.0000   1.0000   1.0000   1.0000
     1.0000   1.0000   1.0000   1.0000   1.0000   1.0000   1.0000   1.0018
    -0.0044  -0.0000  -0.0000  -0.0000  -0.0000  -0.0000  -0.0000  -0.0000
    -0.0000  -0.0000  -0.0000  -0.0000  -0.0000  -0.0000  -0.0000  -0.0000
    -0.0000  -0.0000  -0.0000  -0.0000  -0.0000  -0.0000  -0.0000  -0.0000
    -0.0000  -0.0000  -0.0000  -0.0000  -0.0000  -0.0000  -0.0000  -0.0000
    -0.0000  -0.0000

          k = 0.3333 0.4444 0.2000 (  1325 PWs)   bands (ev):

   -72.5685 -69.3484 -38.7420 -38.6668 -38.6124 -35.5712 -35.5095 -35.4852
    11.3799  11.8359  11.9605  12.1293  12.4299  12.8560  13.0232  13.2195
    13.5345  13.6694  14.4785  14.5558  14.5580  15.0309  15.2085  15.4753
    15.6979  16.4744  17.0717  17.7527  18.3436  19.4783  20.6118  21.4368
    23.4580  24.1228  25.9669  26.5090  27.2046  27.8339  29.3650  29.8784
    30.8602  31.2048  32.7467  33.3386  37.3417  37.6464  39.0543  39.3678
    44.7928  45.0342  47.4568  47.9348  50.1864  50.3967  51.7659  51.9517
    54.9196  54.9970

     occupation numbers 
     1.0000   1.0000   1.0000   1.0000   1.0000   1.0000   1.0000   1.0000
     1.0000   1.0000   1.0000   1.0000   1.0000   1.0000   1.0000   1.0000
     1.0000   1.0000   1.0000   1.0000   1.0000   1.0000   1.0000   1.0000
     1.0091  -0.0000  -0.0000  -0.0000  -0.0000  -0.0000  -0.0000  -0.0000
    -0.0000  -0.0000  -0.0000  -0.0000  -0.0000  -0.0000  -0.0000  -0.0000
    -0.0000  -0.0000  -0.0000  -0.0000  -0.0000  -0.0000  -0.0000  -0.0000
    -0.0000  -0.0000  -0.0000  -0.0000  -0.0000  -0.0000  -0.0000  -0.0000
    -0.0000  -0.0000

          k = 0.3333 0.4444 0.3000 (  1322 PWs)   bands (ev):

   -72.5685 -69.3484 -38.7431 -38.6667 -38.6123 -35.5711 -35.5095 -35.4866
    11.7578  12.0559  12.2846  12.4894  12.7971  12.9073  13.0711  13.2092
    13.3836  13.5629  14.0293  14.1967  14.3350  14.6228  15.1326  15.1792
    15.4466  16.3197  16.9775  17.7498  19.6336  20.6278  20.9408  21.7726
    22.6514  23.4109  24.1124  24.8173  27.9203  28.3097  29.1607  29.7947
    30.3737  30.6342  31.8474  32.6353  40.2861  40.4734  42.1857  42.4122
    45.0741  45.2932  47.1149  47.3009  49.5953  49.7715  51.5274  52.0671
    54.5526  54.7455

     occupation numbers 
     1.0000   1.0000   1.0000   1.0000   1.0000   1.0000   1.0000   1.0000
     1.0000   1.0000   1.0000   1.0000   1.0000   1.0000   1.0000   1.0000
     1.0000   1.0000   1.0000   1.0000   1.0000   1.0000   1.0000   1.0000
     1.0000  -0.0007  -0.0000  -0.0000  -0.0000  -0.0000  -0.0000  -0.0000
    -0.0000  -0.0000  -0.0000  -0.0000  -0.0000  -0.0000  -0.0000  -0.0000
    -0.0000  -0.0000  -0.0000  -0.0000  -0.0000  -0.0000  -0.0000  -0.0000
    -0.0000  -0.0000  -0.0000  -0.0000  -0.0000  -0.0000  -0.0000  -0.0000
    -0.0000  -0.0000

          k = 0.4444 0.4444 0.0000 (  1320 PWs)   bands (ev):

   -72.5629 -69.3422 -38.7350 -38.6614 -38.6604 -35.5649 -35.5638 -35.4768
    10.7238  11.1705  11.5316  11.5363  11.8871  12.0972  12.6802  12.6832
    15.1235  15.1368  15.1750  15.4119  15.4988  15.6489  16.0043  16.5442
    17.2732  17.3806  17.5207  17.6088  17.7594  18.0209  18.9092  19.3935
    25.2512  26.2242  26.3306  27.1568  29.3147  29.3515  29.8918  30.1601
    30.6707  30.7651  30.9215  31.3372  35.2270  35.7629  36.2063  36.6917
    38.5272  38.7545  40.3573  41.1223  58.1203  58.2433  59.2795  59.4823
    62.0047  62.1399

     occupation numbers 
     1.0000   1.0000   1.0000   1.0000   1.0000   1.0000   1.0000   1.0000
     1.0000   1.0000   1.0000   1.0000   1.0000   1.0000   1.0000   1.0000
     1.0000   1.0000   1.0000   1.0000   1.0000   1.0025   0.2635  -0.0000
    -0.0000  -0.0000  -0.0000  -0.0000  -0.0000  -0.0000  -0.0000  -0.0000
    -0.0000  -0.0000  -0.0000  -0.0000  -0.0000  -0.0000  -0.0000  -0.0000
    -0.0000  -0.0000  -0.0000  -0.0000  -0.0000  -0.0000  -0.0000  -0.0000
    -0.0000  -0.0000  -0.0000  -0.0000  -0.0000  -0.0000  -0.0000  -0.0000
    -0.0000  -0.0000

          k = 0.4444 0.4444 0.1000 (  1315 PWs)   bands (ev):

   -72.5629 -69.3422 -38.7354 -38.6613 -38.6605 -35.5647 -35.5639 -35.4774
    10.8497  11.3213  11.6259  11.6282  12.0146  12.2713  12.7625  12.7712
    14.7719  14.7818  15.0089  15.0953  15.3404  15.7286  15.8577  16.2162
    16.3917  16.6954  17.6020  18.0807  18.3599  19.0495  19.5638  20.1135
    25.2861  26.2129  26.4017  27.1368  27.4293  27.7890  29.3734  29.7422
    29.7556  29.9747  31.0799  31.6221  36.4146  36.7953  36.8543  37.2118
    39.9869  40.1961  41.8766  42.5950  56.0600  56.1939  56.6009  56.7328
    59.7051  59.7243

     occupation numbers 
     1.0000   1.0000   1.0000   1.0000   1.0000   1.0000   1.0000   1.0000
     1.0000   1.0000   1.0000   1.0000   1.0000   1.0000   1.0000   1.0000
     1.0000   1.0000   1.0000   1.0000   1.0000   1.0171   0.9860  -0.0126
    -0.0000  -0.0000  -0.0000  -0.0000  -0.0000  -0.0000  -0.0000  -0.0000
    -0.0000  -0.0000  -0.0000  -0.0000  -0.0000  -0.0000  -0.0000  -0.0000
    -0.0000  -0.0000  -0.0000  -0.0000  -0.0000  -0.0000  -0.0000  -0.0000
    -0.0000  -0.0000  -0.0000  -0.0000  -0.0000  -0.0000  -0.0000  -0.0000
    -0.0000  -0.0000

          k = 0.4444 0.4444 0.2000 (  1326 PWs)   bands (ev):

   -72.5629 -69.3421 -38.7373 -38.6612 -38.6608 -35.5647 -35.5642 -35.4797
    11.1712  11.7177  11.8976  11.9074  12.3225  12.7574  12.9984  13.0286
    13.8579  13.9334  14.6948  14.7644  15.1844  15.2018  15.3105  15.7536
    15.8778  16.3465  17.4044  18.1783  19.7826  20.5641  21.0373  21.6521
    24.9005  25.5354  25.8081  26.3595  26.6945  27.1681  27.4027  27.6562
    28.4323  28.8473  30.2761  30.9582  38.6695  38.9757  39.8235  40.1160
    43.0699  43.2419  45.0441  45.7061  51.3299  51.4818  52.0777  52.1958
    57.6223  57.6716

     occupation numbers 
     1.0000   1.0000   1.0000   1.0000   1.0000   1.0000   1.0000   1.0000
     1.0000   1.0000   1.0000   1.0000   1.0000   1.0000   1.0000   1.0000
     1.0000   1.0000   1.0000   1.0000   1.0000   1.0000   1.0000   1.0254
     0.9358  -0.0003  -0.0000  -0.0000  -0.0000  -0.0000  -0.0000  -0.0000
    -0.0000  -0.0000  -0.0000  -0.0000  -0.0000  -0.0000  -0.0000  -0.0000
    -0.0000  -0.0000  -0.0000  -0.0000  -0.0000  -0.0000  -0.0000  -0.0000
    -0.0000  -0.0000  -0.0000  -0.0000  -0.0000  -0.0000  -0.0000  -0.0000
    -0.0000  -0.0000

          k = 0.4444 0.4444 0.3000 (  1332 PWs)   bands (ev):

   -72.5629 -69.3421 -38.7384 -38.6614 -38.6611 -35.5649 -35.5645 -35.4810
    11.4922  12.1552  12.2906  12.3520  12.6036  13.0648  13.1467  13.2940
    13.3854  13.3895  14.3335  14.3950  14.4555  14.4993  15.2994  15.3058
    15.7599  16.2892  17.2066  18.2012  21.3957  22.1526  22.8811  23.1388
    23.4970  23.8093  24.9557  25.5221  26.0083  26.3468  26.8049  27.6233
    27.6964  28.0598  29.1126  30.0603  42.1127  42.3165  43.4319  43.6319
    45.5254  45.7309  47.5714  47.6767  47.7282  47.7854  48.8819  49.5063
    53.1849  53.2413

     occupation numbers 
     1.0000   1.0000   1.0000   1.0000   1.0000   1.0000   1.0000   1.0000
     1.0000   1.0000   1.0000   1.0000   1.0000   1.0000   1.0000   1.0000
     1.0000   1.0000   1.0000   1.0000   1.0000   1.0000   1.0000   1.0000
     1.0275  -0.0019  -0.0000  -0.0000  -0.0000  -0.0000  -0.0000  -0.0000
    -0.0000  -0.0000  -0.0000  -0.0000  -0.0000  -0.0000  -0.0000  -0.0000
    -0.0000  -0.0000  -0.0000  -0.0000  -0.0000  -0.0000  -0.0000  -0.0000
    -0.0000  -0.0000  -0.0000  -0.0000  -0.0000  -0.0000  -0.0000  -0.0000
    -0.0000  -0.0000

     the Fermi energy is    15.9645 ev
     (compare with:    15.9314 eV, computed in scf)

     Writing all to output data dir ./work/pwscf.save/
 
     init_run     :      0.11s CPU      0.13s WALL (       1 calls)
     electrons    :     22.69s CPU     23.92s WALL (       1 calls)

     Called by init_run:
     wfcinit      :      0.00s CPU      0.00s WALL (       1 calls)
     wfcinit:atom :      0.00s CPU      0.00s WALL (      60 calls)
     wfcinit:wfcr :      0.58s CPU      0.65s WALL (      60 calls)
     potinit      :      0.01s CPU      0.01s WALL (       1 calls)
     hinit0       :      0.07s CPU      0.08s WALL (       1 calls)

     Called by electrons:
     c_bands      :     22.69s CPU     23.91s WALL (       1 calls)
     v_of_rho     :      0.01s CPU      0.01s WALL (       1 calls)
     v_h          :      0.00s CPU      0.00s WALL (       1 calls)
     v_xc         :      0.01s CPU      0.01s WALL (       1 calls)
     newd         :      0.02s CPU      0.02s WALL (       1 calls)

     Called by c_bands:
     init_us_2    :      0.00s CPU      0.00s WALL (      60 calls)
     init_us_2:cp :      0.00s CPU      0.00s WALL (      60 calls)
     cegterg      :     22.06s CPU     23.10s WALL (     137 calls)

     Called by sum_band:

     Called by *egterg:
     cdiaghg      :      8.71s CPU      8.75s WALL (    2280 calls)
     cegterg:over :      0.78s CPU      0.82s WALL (    2220 calls)
     cegterg:upda :      0.19s CPU      0.19s WALL (    2220 calls)
     cegterg:last :      0.49s CPU      0.50s WALL (    1422 calls)
     h_psi        :     11.69s CPU     12.67s WALL (    2417 calls)
     s_psi        :      0.29s CPU      0.30s WALL (    2417 calls)
     g_psi        :      0.03s CPU      0.03s WALL (    2220 calls)

     Called by h_psi:
     h_psi:calbec :      0.24s CPU      0.26s WALL (    2417 calls)
     vloc_psi     :     11.11s CPU     12.04s WALL (    2417 calls)
     add_vuspsi   :      0.31s CPU      0.33s WALL (    2417 calls)

     General routines
     calbec       :      0.23s CPU      0.25s WALL (    2417 calls)
     fft          :      0.01s CPU      0.01s WALL (      31 calls)
     ffts         :      0.00s CPU      0.00s WALL (       4 calls)
     fftw         :      9.58s CPU     10.39s WALL (  325588 calls)
     interpolate  :      0.00s CPU      0.00s WALL (       4 calls)
 
     Parallel routines
 
     PWSCF        :     23.83s CPU     26.69s WALL

 
   This run was terminated on:  15:54: 9  23May2024            

=------------------------------------------------------------------------------=
   JOB DONE.
=------------------------------------------------------------------------------=
