
     Program PW2WANNIER v.7.0 starts on 11Jul2023 at 21:40:26 

     This program is part of the open-source Quantum ESPRESSO suite
     for quantum simulation of materials; please cite
         "P. Giannozzi et al., J. Phys.:Condens. Matter 21 395502 (2009);
         "P. Giannozzi et al., J. Phys.:Condens. Matter 29 465901 (2017);
         "P. Giannozzi et al., J. Chem. Phys. 152 154105 (2020);
          URL http://www.quantum-espresso.org", 
     in publications or presentations arising from this work. More details at
     http://www.quantum-espresso.org/quote

     Parallel version (MPI), running on    22 processors

     MPI processes distributed on     1 nodes
     R & G space division:  proc/nbgrp/npool/nimage =      22
     187813 MiB available memory on the printing compute node when the environment starts
 
 
  Reading nscf_save data

     Reading xml data from directory:

     ./work/pwscf.save/
     file Ni.rel-pbe-n-rrkjus_psl.0.1.UPF: wavefunction(s)  3D renormalized

     IMPORTANT: XC functional enforced from input :
     Exchange-correlation= PBE
                           (   1   4   3   4   0   0   0)
     Any further DFT definition will be discarded
     Please, verify this is what you really want

 
     Parallelization info
     --------------------
     sticks:   dense  smooth     PW     G-vecs:    dense   smooth      PW
     Min          63      20      6                 2543      474      82
     Max          64      22      7                 2548      477      87
     Sum        1389     457    145                55993    10451    1843
 
     Using Slab Decomposition
 

     Check: negative core charge=   -0.000008
     Reading collected, re-writing distributed wavefunctions
 
  Spin CASE ( non-collinear )
 
  Wannier mode is: standalone     
 
  -----------------
  *** Reading nnkp 
  -----------------
 
  Checking info from wannier.nnkp file
 
  - Real lattice is ok
  - Reciprocal lattice is ok
  - K-points are ok
  - Number of wannier functions is ok ( 36)
  - All guiding functions are given 
 
 Projections:
    0.000000    0.000000    0.000000  0  1  1    1.000000
    0.000000    0.000000    0.000000  0  1  1    1.000000
    0.000000    0.000000    0.000000  1  1  1    1.000000
    0.000000    0.000000    0.000000  1  1  1    1.000000
    0.000000    0.000000    0.000000  1  2  1    1.000000
    0.000000    0.000000    0.000000  1  2  1    1.000000
    0.000000    0.000000    0.000000  1  3  1    1.000000
    0.000000    0.000000    0.000000  1  3  1    1.000000
    0.000000    0.000000    0.000000  2  1  1    1.000000
    0.000000    0.000000    0.000000  2  1  1    1.000000
    0.000000    0.000000    0.000000  2  2  1    1.000000
    0.000000    0.000000    0.000000  2  2  1    1.000000
    0.000000    0.000000    0.000000  2  3  1    1.000000
    0.000000    0.000000    0.000000  2  3  1    1.000000
    0.000000    0.000000    0.000000  2  4  1    1.000000
    0.000000    0.000000    0.000000  2  4  1    1.000000
    0.000000    0.000000    0.000000  2  5  1    1.000000
    0.000000    0.000000    0.000000  2  5  1    1.000000
    0.500000    0.500000    0.714374  0  1  1    1.000000
    0.500000    0.500000    0.714374  0  1  1    1.000000
    0.500000    0.500000    0.714374  1  1  1    1.000000
    0.500000    0.500000    0.714374  1  1  1    1.000000
    0.500000    0.500000    0.714374  1  2  1    1.000000
    0.500000    0.500000    0.714374  1  2  1    1.000000
    0.500000    0.500000    0.714374  1  3  1    1.000000
    0.500000    0.500000    0.714374  1  3  1    1.000000
    0.500000    0.500000    0.714374  2  1  1    1.000000
    0.500000    0.500000    0.714374  2  1  1    1.000000
    0.500000    0.500000    0.714374  2  2  1    1.000000
    0.500000    0.500000    0.714374  2  2  1    1.000000
    0.500000    0.500000    0.714374  2  3  1    1.000000
    0.500000    0.500000    0.714374  2  3  1    1.000000
    0.500000    0.500000    0.714374  2  4  1    1.000000
    0.500000    0.500000    0.714374  2  4  1    1.000000
    0.500000    0.500000    0.714374  2  5  1    1.000000
    0.500000    0.500000    0.714374  2  5  1    1.000000
 
  Reading data about k-point neighbours 
 
  All neighbours are found 
 
  Opening pp-files 
 
 
  --------------------------
  *** Compute  A projections
  --------------------------
 
  AMN: iknum =       60
       1           1           0
           1           1   1.75048088204974     
           1           0
           1           2   1.75048088204974     
           2           1
           1           3   1.04871598252667     
           2           1
           1           4   1.04871598252667     
           3           1
           1           5  0.709884830776486     
           3           1
           1           6  0.709884830776486     
           4           1
           1           7  0.709884830776488     
           4           1
           1           8  0.709884830776488     
           5           2
           1           9   1.22952698019373     
           5           2
           1          10   1.22952698019373     
           6           2
           1          11  0.798115408285006     
           6           2
           1          12  0.798115408285006     
           7           2
           1          13  0.798115408285006     
           7           2
           1          14  0.798115408285006     
           8           2
           1          15   1.16357755200766     
           8           2
           1          16   1.16357755200766     
           9           2
           1          17  0.723246942893633     
           9           2
           1          18  0.723246942893633     
           1           0
           1          19   1.75048088204974     
           1           0
           1          20   1.75048088204974     
           2           1
           1          21   1.04871598252667     
           2           1
           1          22   1.04871598252667     
           3           1
           1          23  0.709884830776486     
           3           1
           1          24  0.709884830776486     
           4           1
           1          25  0.709884830776488     
           4           1
           1          26  0.709884830776488     
           5           2
           1          27   1.22952698019373     
           5           2
           1          28   1.22952698019373     
           6           2
           1          29  0.798115408285006     
           6           2
           1          30  0.798115408285006     
           7           2
           1          31  0.798115408285006     
           7           2
           1          32  0.798115408285006     
           8           2
           1          33   1.16357755200766     
           8           2
           1          34   1.16357755200766     
           9           2
           1          35  0.723246942893633     
           9           2
           1          36  0.723246942893633     
       2           1           0
           2           1   1.69237174275148     
           1           0
           2           2   1.69237174275148     
           2           1
           2           3   1.12164606273219     
           2           1
           2           4   1.12164606273219     
           3           1
           2           5  0.709300394488838     
           3           1
           2           6  0.709300394488838     
           4           1
           2           7  0.709300394488841     
           4           1
           2           8  0.709300394488841     
           5           2
           2           9   1.21102214674166     
           5           2
           2          10   1.21102214674166     
           6           2
           2          11  0.801407893665568     
           6           2
           2          12  0.801407893665568     
           7           2
           2          13  0.801407893665568     
           7           2
           2          14  0.801407893665568     
           8           2
           2          15   1.16228062572876     
           8           2
           2          16   1.16228062572876     
           9           2
           2          17  0.723508814479833     
           9           2
           2          18  0.723508814479833     
           1           0
           2          19   1.69237174275148     
           1           0
           2          20   1.69237174275148     
           2           1
           2          21   1.12164606273219     
           2           1
           2          22   1.12164606273219     
           3           1
           2          23  0.709300394488838     
           3           1
           2          24  0.709300394488838     
           4           1
           2          25  0.709300394488841     
           4           1
           2          26  0.709300394488841     
           5           2
           2          27   1.21102214674166     
           5           2
           2          28   1.21102214674166     
           6           2
           2          29  0.801407893665568     
           6           2
           2          30  0.801407893665568     
           7           2
           2          31  0.801407893665568     
           7           2
           2          32  0.801407893665568     
           8           2
           2          33   1.16228062572876     
           8           2
           2          34   1.16228062572876     
           9           2
           2          35  0.723508814479832     
           9           2
           2          36  0.723508814479832     
       3           1           0
           3           1   1.56375798480685     
           1           0
           3           2   1.56375798480685     
           2           1
           3           3   1.28199751307568     
           2           1
           3           4   1.28199751307568     
           3           1
           3           5  0.707816983781351     
           3           1
           3           6  0.707816983781351     
           4           1
           3           7  0.707816983781354     
           4           1
           3           8  0.707816983781354     
           5           2
           3           9   1.17299519844218     
           5           2
           3          10   1.17299519844218     
           6           2
           3          11  0.808964138105035     
           6           2
           3          12  0.808964138105035     
           7           2
           3          13  0.808964138105035     
           7           2
           3          14  0.808964138105035     
           8           2
           3          15   1.15850272513574     
           8           2
           3          16   1.15850272513574     
           9           2
           3          17  0.723304702521619     
           9           2
           3          18  0.723304702521619     
           1           0
           3          19   1.56375798480685     
           1           0
           3          20   1.56375798480685     
           2           1
           3          21   1.28199751307568     
           2           1
           3          22   1.28199751307568     
           3           1
           3          23  0.707816983781351     
           3           1
           3          24  0.707816983781351     
           4           1
           3          25  0.707816983781354     
           4           1
           3          26  0.707816983781354     
           5           2
           3          27   1.17299519844218     
           5           2
           3          28   1.17299519844218     
           6           2
           3          29  0.808964138105035     
           6           2
           3          30  0.808964138105035     
           7           2
           3          31  0.808964138105035     
           7           2
           3          32  0.808964138105035     
           8           2
           3          33   1.15850272513574     
           8           2
           3          34   1.15850272513574     
           9           2
           3          35  0.723304702521619     
           9           2
           3          36  0.723304702521619     
       4           1           0
           4           1   1.46255010612428     
           1           0
           4           2   1.46255010612428     
           2           1
           4           3   1.40668078386853     
           2           1
           4           4   1.40668078386853     
           3           1
           4           5  0.706601717847017     
           3           1
           4           6  0.706601717847017     
           4           1
           4           7  0.706601717847020     
           4           1
           4           8  0.706601717847020     
           5           2
           4           9   1.14489091134856     
           5           2
           4          10   1.14489091134856     
           6           2
           4          11  0.814400803169693     
           6           2
           4          12  0.814400803169693     
           7           2
           4          13  0.814400803169693     
           7           2
           4          14  0.814400803169693     
           8           2
           4          15   1.15550939259281     
           8           2
           4          16   1.15550939259281     
           9           2
           4          17  0.723176103972058     
           9           2
           4          18  0.723176103972058     
           1           0
           4          19   1.46255010612428     
           1           0
           4          20   1.46255010612428     
           2           1
           4          21   1.40668078386853     
           2           1
           4          22   1.40668078386853     
           3           1
           4          23  0.706601717847018     
           3           1
           4          24  0.706601717847018     
           4           1
           4          25  0.706601717847020     
           4           1
           4          26  0.706601717847020     
           5           2
           4          27   1.14489091134856     
           5           2
           4          28   1.14489091134856     
           6           2
           4          29  0.814400803169693     
           6           2
           4          30  0.814400803169693     
           7           2
           4          31  0.814400803169693     
           7           2
           4          32  0.814400803169693     
           8           2
           4          33   1.15550939259281     
           8           2
           4          34   1.15550939259281     
           9           2
           4          35  0.723176103972058     
           9           2
           4          36  0.723176103972058     
       5           1           0
           5           1   1.64147173612375     
           1           0
           5           2   1.64147173612375     
           2           1
           5           3   1.02956146966800     
           2           1
           5           4   1.02956146966800     
           3           1
           5           5  0.705119380821107     
           3           1
           5           6  0.705119380821107     
           4           1
           5           7  0.822963214868491     
           4           1
           5           8  0.822963214868491     
           5           2
           5           9   1.19929836306384     
           5           2
           5          10   1.19929836306384     
           6           2
           5          11  0.795378882000839     
           6           2
           5          12  0.795378882000839     
           7           2
           5          13  0.839847434131729     
           7           2
           5          14  0.839847434131729     
           8           2
           5          15   1.14727387734820     
           8           2
           5          16   1.14727387734820     
           9           2
           5          17  0.740086385526297     
           9           2
           5          18  0.740086385526297     
           1           0
           5          19   1.64147173612375     
           1           0
           5          20   1.64147173612375     
           2           1
           5          21   1.02956146966800     
           2           1
           5          22   1.02956146966800     
           3           1
           5          23  0.705119380821107     
           3           1
           5          24  0.705119380821107     
           4           1
           5          25  0.822963214868491     
           4           1
           5          26  0.822963214868491     
           5           2
           5          27   1.19929836306384     
           5           2
           5          28   1.19929836306384     
           6           2
           5          29  0.795378882000839     
           6           2
           5          30  0.795378882000839     
           7           2
           5          31  0.839847434131729     
           7           2
           5          32  0.839847434131729     
           8           2
           5          33   1.14727387734820     
           8           2
           5          34   1.14727387734820     
           9           2
           5          35  0.740086385526297     
           9           2
           5          36  0.740086385526297     
       6           1           0
           6           1   1.59010374237042     
           1           0
           6           2   1.59010374237042     
           2           1
           6           3   1.09627250249729     
           2           1
           6           4   1.09627250249729     
           3           1
           6           5  0.704557280439552     
           3           1
           6           6  0.704557280439552     
           4           1
           6           7  0.818691343390629     
           4           1
           6           8  0.818691343390629     
           5           2
           6           9   1.17955831382893     
           5           2
           6          10   1.17955831382893     
           6           2
           6          11  0.798585134681739     
           6           2
           6          12  0.798585134681739     
           7           2
           6          13  0.848330754039693     
           7           2
           6          14  0.848330754039693     
           8           2
           6          15   1.14560325216645     
           8           2
           6          16   1.14560325216645     
           9           2
           6          17  0.740086132486819     
           9           2
           6          18  0.740086132486819     
           1           0
           6          19   1.59010374237042     
           1           0
           6          20   1.59010374237042     
           2           1
           6          21   1.09627250249729     
           2           1
           6          22   1.09627250249729     
           3           1
           6          23  0.704557280439552     
           3           1
           6          24  0.704557280439552     
           4           1
           6          25  0.818691343390629     
           4           1
           6          26  0.818691343390629     
           5           2
           6          27   1.17955831382893     
           5           2
           6          28   1.17955831382893     
           6           2
           6          29  0.798585134681739     
           6           2
           6          30  0.798585134681739     
           7           2
           6          31  0.848330754039693     
           7           2
           6          32  0.848330754039693     
           8           2
           6          33   1.14560325216645     
           8           2
           6          34   1.14560325216645     
           9           2
           6          35  0.740086132486820     
           9           2
           6          36  0.740086132486820     
       7           1           0
           7           1   1.47629246931623     
           1           0
           7           2   1.47629246931623     
           2           1
           7           3   1.24303932737273     
           2           1
           7           4   1.24303932737273     
           3           1
           7           5  0.703122387572854     
           3           1
           7           6  0.703122387572854     
           4           1
           7           7  0.809159010122329     
           4           1
           7           8  0.809159010122329     
           5           2
           7           9   1.13777609167066     
           5           2
           7          10   1.13777609167066     
           6           2
           7          11  0.805396411935639     
           6           2
           7          12  0.805396411935639     
           7           2
           7          13  0.867456328057292     
           7           2
           7          14  0.867456328057292     
           8           2
           7          15   1.14131733675460     
           8           2
           7          16   1.14131733675460     
           9           2
           7          17  0.739659622724905     
           9           2
           7          18  0.739659622724905     
           1           0
           7          19   1.47629246931623     
           1           0
           7          20   1.47629246931623     
           2           1
           7          21   1.24303932737273     
           2           1
           7          22   1.24303932737273     
           3           1
           7          23  0.703122387572854     
           3           1
           7          24  0.703122387572854     
           4           1
           7          25  0.809159010122329     
           4           1
           7          26  0.809159010122329     
           5           2
           7          27   1.13777609167066     
           5           2
           7          28   1.13777609167066     
           6           2
           7          29  0.805396411935639     
           6           2
           7          30  0.805396411935639     
           7           2
           7          31  0.867456328057292     
           7           2
           7          32  0.867456328057292     
           8           2
           7          33   1.14131733675460     
           8           2
           7          34   1.14131733675460     
           9           2
           7          35  0.739659622724905     
           9           2
           7          36  0.739659622724905     
       8           1           0
           8           1   1.38661789080291     
           1           0
           8           2   1.38661789080291     
           2           1
           8           3   1.35754844592826     
           2           1
           8           4   1.35754844592826     
           3           1
           8           5  0.702019906139596     
           3           1
           8           6  0.702019906139596     
           4           1
           8           7  0.801739694642631     
           4           1
           8           8  0.801739694642631     
           5           2
           8           9   1.10652658065398     
           5           2
           8          10   1.10652658065398     
           6           2
           8          11  0.810888471289666     
           6           2
           8          12  0.810888471289666     
           7           2
           8          13  0.882751065052516     
           7           2
           8          14  0.882751065052516     
           8           2
           8          15   1.13801824118244     
           8           2
           8          16   1.13801824118244     
           9           2
           8          17  0.739897169985303     
           9           2
           8          18  0.739897169985303     
           1           0
           8          19   1.38661789080291     
           1           0
           8          20   1.38661789080291     
           2           1
           8          21   1.35754844592826     
           2           1
           8          22   1.35754844592826     
           3           1
           8          23  0.702019906139596     
           3           1
           8          24  0.702019906139596     
           4           1
           8          25  0.801739694642631     
           4           1
           8          26  0.801739694642631     
           5           2
           8          27   1.10652658065398     
           5           2
           8          28   1.10652658065398     
           6           2
           8          29  0.810888471289666     
           6           2
           8          30  0.810888471289666     
           7           2
           8          31  0.882751065052516     
           7           2
           8          32  0.882751065052516     
           8           2
           8          33   1.13801824118244     
           8           2
           8          34   1.13801824118244     
           9           2
           8          35  0.739897169985303     
           9           2
           8          36  0.739897169985303     
       9           1           0
           9           1   1.38238417234722     
           1           0
           9           2   1.38238417234722     
           2           1
           9           3  0.981807958254545     
           2           1
           9           4  0.981807958254545     
           3           1
           9           5  0.693178129310758     
           3           1
           9           6  0.693178129310758     
           4           1
           9           7   1.08102759208493     
           4           1
           9           8   1.08102759208493     
           5           2
           9           9   1.12862094456664     
           5           2
           9          10   1.12862094456664     
           6           2
           9          11  0.788753369506953     
           6           2
           9          12  0.788753369506953     
           7           2
           9          13  0.942247821180780     
           7           2
           9          14  0.942247821180780     
           8           2
           9          15   1.11630701876816     
           8           2
           9          16   1.11630701876816     
           9           2
           9          17  0.782452400399448     
           9           2
           9          18  0.782452400399448     
           1           0
           9          19   1.38238417234722     
           1           0
           9          20   1.38238417234722     
           2           1
           9          21  0.981807958254545     
           2           1
           9          22  0.981807958254545     
           3           1
           9          23  0.693178129310758     
           3           1
           9          24  0.693178129310758     
           4           1
           9          25   1.08102759208493     
           4           1
           9          26   1.08102759208493     
           5           2
           9          27   1.12862094456664     
           5           2
           9          28   1.12862094456664     
           6           2
           9          29  0.788753369506953     
           6           2
           9          30  0.788753369506953     
           7           2
           9          31  0.942247821180780     
           7           2
           9          32  0.942247821180780     
           8           2
           9          33   1.11630701876816     
           8           2
           9          34   1.11630701876816     
           9           2
           9          35  0.782452400399449     
           9           2
           9          36  0.782452400399449     
      10
           1           0
          10           1   1.34627175303301     
           1           0
          10           2   1.34627175303301     
           2           1
          10           3   1.03358517437223     
           2           1
          10           4   1.03358517437223     
           3           1
          10           5  0.692578428925744     
           3           1
          10           6  0.692578428925744     
           4           1
          10           7   1.06983524156714     
           4           1
          10           8   1.06983524156714     
           5           2
          10           9   1.10530504079626     
           5           2
          10          10   1.10530504079626     
           6           2
          10          11  0.791233402442837     
           6           2
          10          12  0.791233402442837     
           7           2
          10          13  0.962436123019471     
           7           2
          10          14  0.962436123019471     
           8           2
          10          15   1.11314030828987     
           8           2
          10          16   1.11314030828987     
           9           2
          10          17  0.782000526762625     
           9           2
          10          18  0.782000526762625     
           1           0
          10          19   1.34627175303301     
           1           0
          10          20   1.34627175303301     
           2           1
          10          21   1.03358517437223     
           2           1
          10          22   1.03358517437223     
           3           1
          10          23  0.692578428925744     
           3           1
          10          24  0.692578428925744     
           4           1
          10          25   1.06983524156714     
           4           1
          10          26   1.06983524156714     
           5           2
          10          27   1.10530504079626     
           5           2
          10          28   1.10530504079626     
           6           2
          10          29  0.791233402442837     
           6           2
          10          30  0.791233402442837     
           7           2
          10          31  0.962436123019471     
           7           2
          10          32  0.962436123019471     
           8           2
          10          33   1.11314030828987     
           8           2
          10          34   1.11314030828987     
           9           2
          10          35  0.782000526762625     
           9           2
          10          36  0.782000526762625     
      11           1           0
          11           1   1.26604633269473     
           1           0
          11           2   1.26604633269473     
           2           1
          11           3   1.14818817616996     
           2           1
          11           4   1.14818817616996     
           3           1
          11           5  0.691352294148884     
           3           1
          11           6  0.691352294148884     
           4           1
          11           7   1.04508664794272     
           4           1
          11           8   1.04508664794272     
           5           2
          11           9   1.05557821760744     
           5           2
          11          10   1.05557821760744     
           6           2
          11          11  0.797308141461057     
           6           2
          11          12  0.797308141461057     
           7           2
          11          13   1.00784617179911     
           7           2
          11          14   1.00784617179911     
           8           2
          11          15   1.10676038168447     
           8           2
          11          16   1.10676038168447     
           9           2
          11          17  0.781261966781047     
           9           2
          11          18  0.781261966781047     
           1           0
          11          19   1.26604633269473     
           1           0
          11          20   1.26604633269473     
           2           1
          11          21   1.14818817616996     
           2           1
          11          22   1.14818817616996     
           3           1
          11          23  0.691352294148884     
           3           1
          11          24  0.691352294148884     
           4           1
          11          25   1.04508664794272     
           4           1
          11          26   1.04508664794272     
           5           2
          11          27   1.05557821760744     
           5           2
          11          28   1.05557821760744     
           6           2
          11          29  0.797308141461057     
           6           2
          11          30  0.797308141461057     
           7           2
          11          31   1.00784617179911     
           7           2
          11          32   1.00784617179911     
           8           2
          11          33   1.10676038168447     
           8           2
          11          34   1.10676038168447     
           9           2
          11          35  0.781261966781047     
           9           2
          11          36  0.781261966781047     
      12           1           0
          12           1   1.20261737413860     
           1           0
          12           2   1.20261737413860     
           2           1
          12           3   1.23811924886666     
           2           1
          12           4   1.23811924886666     
           3           1
          12           5  0.690337099566760     
           3           1
          12           6  0.690337099566760     
           4           1
          12           7   1.02547984303563     
           4           1
          12           8   1.02547984303563     
           5           2
          12           9   1.01721774324798     
           5           2
          12          10   1.01721774324798     
           6           2
          12          11  0.802102237706133     
           6           2
          12          12  0.802102237706133     
           7           2
          12          13   1.04364844583460     
           7           2
          12          14   1.04364844583460     
           8           2
          12          15   1.10157104987614     
           8           2
          12          16   1.10157104987614     
           9           2
          12          17  0.780627469730446     
           9           2
          12          18  0.780627469730446     
           1           0
          12          19   1.20261737413860     
           1           0
          12          20   1.20261737413860     
           2           1
          12          21   1.23811924886666     
           2           1
          12          22   1.23811924886666     
           3           1
          12          23  0.690337099566760     
           3           1
          12          24  0.690337099566760     
           4           1
          12          25   1.02547984303563     
           4           1
          12          26   1.02547984303563     
           5           2
          12          27   1.01721774324798     
           5           2
          12          28   1.01721774324798     
           6           2
          12          29  0.802102237706133     
           6           2
          12          30  0.802102237706133     
           7           2
          12          31   1.04364844583460     
           7           2
          12          32   1.04364844583460     
           8           2
          12          33   1.10157104987614     
           8           2
          12          34   1.10157104987614     
           9           2
          12          35  0.780627469730446     
           9           2
          12          36  0.780627469730446     
      13           1           0
          13           1   1.11521081847417     
           1           0
          13           2   1.11521081847417     
           2           1
          13           3  0.928443513616633     
           2           1
          13           4  0.928443513616633     
           3           1
          13           5  0.679501190650726     
           3           1
          13           6  0.679501190650726     
           4           1
          13           7   1.32953685168113     
           4           1
          13           8   1.32953685168113     
           5           2
          13           9   1.05573469469561     
           5           2
          13          10   1.05573469469561     
           6           2
          13          11  0.780670452576917     
           6           2
          13          12  0.780670452576917     
           7           2
          13          13   1.05361379965856     
           7           2
          13          14   1.05361379965856     
           8           2
          13          15   1.09705838425188     
           8           2
          13          16   1.09705838425188     
           9           2
          13          17  0.829454971053170     
           9           2
          13          18  0.829454971053170     
           1           0
          13          19   1.11521081847417     
           1           0
          13          20   1.11521081847417     
           2           1
          13          21  0.928443513616633     
           2           1
          13          22  0.928443513616633     
           3           1
          13          23  0.679501190650726     
           3           1
          13          24  0.679501190650726     
           4           1
          13          25   1.32953685168113     
           4           1
          13          26   1.32953685168113     
           5           2
          13          27   1.05573469469561     
           5           2
          13          28   1.05573469469561     
           6           2
          13          29  0.780670452576917     
           6           2
          13          30  0.780670452576917     
           7           2
          13          31   1.05361379965856     
           7           2
          13          32   1.05361379965856     
           8           2
          13          33   1.09705838425188     
           8           2
          13          34   1.09705838425188     
           9           2
          13          35  0.829454971053170     
           9           2
          13          36  0.829454971053170     
      14           1           0
          14           1   1.09359155740473     
           1           0
          14           2   1.09359155740473     
           2           1
          14           3  0.965004048714538     
           2           1
          14           4  0.965004048714538     
           3           1
          14           5  0.679053378445716     
           3           1
          14           6  0.679053378445716     
           4           1
          14           7   1.31412044918759     
           4           1
          14           8   1.31412044918759     
           5           2
          14           9   1.02992264084051     
           5           2
          14          10   1.02992264084051     
           6           2
          14          11  0.783037577600499     
           6           2
          14          12  0.783037577600499     
           7           2
          14          13   1.08447374744713     
           7           2
          14          14   1.08447374744713     
           8           2
          14          15   1.09236798675691     
           8           2
          14          16   1.09236798675691     
           9           2
          14          17  0.829112200487994     
           9           2
          14          18  0.829112200487994     
           1           0
          14          19   1.09359155740473     
           1           0
          14          20   1.09359155740473     
           2           1
          14          21  0.965004048714538     
           2           1
          14          22  0.965004048714538     
           3           1
          14          23  0.679053378445716     
           3           1
          14          24  0.679053378445716     
           4           1
          14          25   1.31412044918759     
           4           1
          14          26   1.31412044918759     
           5           2
          14          27   1.02992264084051     
           5           2
          14          28   1.02992264084051     
           6           2
          14          29  0.783037577600499     
           6           2
          14          30  0.783037577600499     
           7           2
          14          31   1.08447374744713     
           7           2
          14          32   1.08447374744713     
           8           2
          14          33   1.09236798675691     
           8           2
          14          34   1.09236798675691     
           9           2
          14          35  0.829112200487994     
           9           2
          14          36  0.829112200487994     
      15           1           0
          15           1   1.04539196224832     
           1           0
          15           2   1.04539196224832     
           2           1
          15           3   1.04624778741709     
           2           1
          15           4   1.04624778741709     
           3           1
          15           5  0.678061277773699     
           3           1
          15           6  0.678061277773699     
           4           1
          15           7   1.27975382150402     
           4           1
          15           8   1.27975382150402     
           5           2
          15           9  0.973287548476148     
           5           2
          15          10  0.973287548476148     
           6           2
          15          11  0.788232818748881     
           6           2
          15          12  0.788232818748881     
           7           2
          15          13   1.15302031533925     
           7           2
          15          14   1.15302031533925     
           8           2
          15          15   1.08209487606779     
           8           2
          15          16   1.08209487606779     
           9           2
          15          17  0.828432324072596     
           9           2
          15          18  0.828432324072596     
           1           0
          15          19   1.04539196224832     
           1           0
          15          20   1.04539196224832     
           2           1
          15          21   1.04624778741709     
           2           1
          15          22   1.04624778741709     
           3           1
          15          23  0.678061277773699     
           3           1
          15          24  0.678061277773699     
           4           1
          15          25   1.27975382150402     
           4           1
          15          26   1.27975382150402     
           5           2
          15          27  0.973287548476148     
           5           2
          15          28  0.973287548476148     
           6           2
          15          29  0.788232818748881     
           6           2
          15          30  0.788232818748881     
           7           2
          15          31   1.15302031533925     
           7           2
          15          32   1.15302031533925     
           8           2
          15          33   1.08209487606779     
           8           2
          15          34   1.08209487606779     
           9           2
          15          35  0.828432324072596     
           9           2
          15          36  0.828432324072596     
      16           1           0
          16           1   1.00711397342827     
           1           0
          16           2   1.00711397342827     
           2           1
          16           3   1.11053928378770     
           2           1
          16           4   1.11053928378770     
           3           1
          16           5  0.677164321013084     
           3           1
          16           6  0.677164321013084     
           4           1
          16           7   1.25240694312727     
           4           1
          16           8   1.25240694312727     
           5           2
          16           9  0.929008976447516     
           5           2
          16          10  0.929008976447516     
           6           2
          16          11  0.792144448471874     
           6           2
          16          12  0.792144448471874     
           7           2
          16          13   1.20758050232614     
           7           2
          16          14   1.20758050232614     
           8           2
          16          15   1.07367383012099     
           8           2
          16          16   1.07367383012099     
           9           2
          16          17  0.827556730147897     
           9           2
          16          18  0.827556730147897     
           1           0
          16          19   1.00711397342827     
           1           0
          16          20   1.00711397342827     
           2           1
          16          21   1.11053928378770     
           2           1
          16          22   1.11053928378770     
           3           1
          16          23  0.677164321013084     
           3           1
          16          24  0.677164321013084     
           4           1
          16          25   1.25240694312727     
           4           1
          16          26   1.25240694312727     
           5           2
          16          27  0.929008976447516     
           5           2
          16          28  0.929008976447516     
           6           2
          16          29  0.792144448471874     
           6           2
          16          30  0.792144448471874     
           7           2
          16          31   1.20758050232614     
           7           2
          16          32   1.20758050232614     
           8           2
          16          33   1.07367383012099     
           8           2
          16          34   1.07367383012099     
           9           2
          16          35  0.827556730147897     
           9           2
          16          36  0.827556730147897     
      17           1           0
          17           1  0.955338294739723     
           1           0
          17           2  0.955338294739723     
           2           1
          17           3  0.894251921553928     
           2           1
          17           4  0.894251921553928     
           3           1
          17           5  0.670723935012050     
           3           1
          17           6  0.670723935012050     
           4           1
          17           7   1.46870373637020     
           4           1
          17           8   1.46870373637020     
           5           2
          17           9   1.01251596030171     
           5           2
          17          10   1.01251596030171     
           6           2
          17          11  0.775677608670576     
           6           2
          17          12  0.775677608670576     
           7           2
          17          13   1.12407319699710     
           7           2
          17          14   1.12407319699710     
           8           2
          17          15   1.09345925745521     
           8           2
          17          16   1.09345925745521     
           9           2
          17          17  0.860346350151465     
           9           2
          17          18  0.860346350151465     
           1           0
          17          19  0.955338294739723     
           1           0
          17          20  0.955338294739723     
           2           1
          17          21  0.894251921553928     
           2           1
          17          22  0.894251921553928     
           3           1
          17          23  0.670723935012049     
           3           1
          17          24  0.670723935012049     
           4           1
          17          25   1.46870373637020     
           4           1
          17          26   1.46870373637020     
           5           2
          17          27   1.01251596030171     
           5           2
          17          28   1.01251596030171     
           6           2
          17          29  0.775677608670576     
           6           2
          17          30  0.775677608670576     
           7           2
          17          31   1.12407319699710     
           7           2
          17          32   1.12407319699710     
           8           2
          17          33   1.09345925745521     
           8           2
          17          34   1.09345925745521     
           9           2
          17          35  0.860346350151465     
           9           2
          17          36  0.860346350151465     
      18           1           0
          18           1  0.941717708005502     
           1           0
          18           2  0.941717708005502     
           2           1
          18           3  0.921679093204574     
           2           1
          18           4  0.921679093204574     
           3           1
          18           5  0.670286489889413     
           3           1
          18           6  0.670286489889413     
           4           1
          18           7   1.45212107889787     
           4           1
          18           8   1.45212107889787     
           5           2
          18           9  0.985429596931910     
           5           2
          18          10  0.985429596931910     
           6           2
          18          11  0.777523962966493     
           6           2
          18          12  0.777523962966493     
           7           2
          18          13   1.16005876661547     
           7           2
          18          14   1.16005876661547     
           8           2
          18          15   1.08711463496510     
           8           2
          18          16   1.08711463496510     
           9           2
          18          17  0.859832615987025     
           9           2
          18          18  0.859832615987025     
           1           0
          18          19  0.941717708005503     
           1           0
          18          20  0.941717708005503     
           2           1
          18          21  0.921679093204575     
           2           1
          18          22  0.921679093204575     
           3           1
          18          23  0.670286489889413     
           3           1
          18          24  0.670286489889413     
           4           1
          18          25   1.45212107889787     
           4           1
          18          26   1.45212107889787     
           5           2
          18          27  0.985429596931910     
           5           2
          18          28  0.985429596931910     
           6           2
          18          29  0.777523962966494     
           6           2
          18          30  0.777523962966494     
           7           2
          18          31   1.16005876661547     
           7           2
          18          32   1.16005876661547     
           8           2
          18          33   1.08711463496510     
           8           2
          18          34   1.08711463496510     
           9           2
          18          35  0.859832615987026     
           9           2
          18          36  0.859832615987026     
      19           1           0
          19           1  0.911256705885878     
           1           0
          19           2  0.911256705885878     
           2           1
          19           3  0.982979608766927     
           2           1
          19           4  0.982979608766927     
           3           1
          19           5  0.669352144596284     
           3           1
          19           6  0.669352144596284     
           4           1
          19           7   1.41506344340099     
           4           1
          19           8   1.41506344340099     
           5           2
          19           9  0.925534371120758     
           5           2
          19          10  0.925534371120758     
           6           2
          19          11  0.782291703330418     
           6           2
          19          12  0.782291703330418     
           7           2
          19          13   1.24013347786830     
           7           2
          19          14   1.24013347786830     
           8           2
          19          15   1.07329401614601     
           8           2
          19          16   1.07329401614601     
           9           2
          19          17  0.858594331219075     
           9           2
          19          18  0.858594331219075     
           1           0
          19          19  0.911256705885878     
           1           0
          19          20  0.911256705885878     
           2           1
          19          21  0.982979608766927     
           2           1
          19          22  0.982979608766927     
           3           1
          19          23  0.669352144596284     
           3           1
          19          24  0.669352144596284     
           4           1
          19          25   1.41506344340099     
           4           1
          19          26   1.41506344340099     
           5           2
          19          27  0.925534371120758     
           5           2
          19          28  0.925534371120758     
           6           2
          19          29  0.782291703330418     
           6           2
          19          30  0.782291703330418     
           7           2
          19          31   1.24013347786830     
           7           2
          19          32   1.24013347786830     
           8           2
          19          33   1.07329401614601     
           8           2
          19          34   1.07329401614601     
           9           2
          19          35  0.858594331219075     
           9           2
          19          36  0.858594331219075     
      20
           1           0
          20           1  0.886970885782025     
           1           0
          20           2  0.886970885782025     
           2           1
          20           3   1.03170518308029     
           2           1
          20           4   1.03170518308029     
           3           1
          20           5  0.668539372622408     
           3           1
          20           6  0.668539372622408     
           4           1
          20           7   1.38547012569903     
           4           1
          20           8   1.38547012569903     
           5           2
          20           9  0.878207386595547     
           5           2
          20          10  0.878207386595547     
           6           2
          20          11  0.785658099319555     
           6           2
          20          12  0.785658099319555     
           7           2
          20          13   1.30371750395111     
           7           2
          20          14   1.30371750395111     
           8           2
          20          15   1.06192650168326     
           8           2
          20          16   1.06192650168326     
           9           2
          20          17  0.857590567205829     
           9           2
          20          18  0.857590567205829     
           1           0
          20          19  0.886970885782025     
           1           0
          20          20  0.886970885782025     
           2           1
          20          21   1.03170518308029     
           2           1
          20          22   1.03170518308029     
           3           1
          20          23  0.668539372622408     
           3           1
          20          24  0.668539372622408     
           4           1
          20          25   1.38547012569903     
           4           1
          20          26   1.38547012569903     
           5           2
          20          27  0.878207386595547     
           5           2
          20          28  0.878207386595547     
           6           2
          20          29  0.785658099319555     
           6           2
          20          30  0.785658099319555     
           7           2
          20          31   1.30371750395111     
           7           2
          20          32   1.30371750395111     
           8           2
          20          33   1.06192650168326     
           8           2
          20          34   1.06192650168326     
           9           2
          20          35  0.857590567205829     
           9           2
          20          36  0.857590567205829     
      21           1           0
          21           1   1.54319107275893     
           1           0
          21           2   1.54319107275893     
           2           1
          21           3   1.01147736636746     
           2           1
          21           4   1.01147736636746     
           3           1
          21           5  0.810973570947974     
           3           1
          21           6  0.810973570947974     
           4           1
          21           7  0.810973570947977     
           4           1
          21           8  0.810973570947977     
           5           2
          21           9   1.17236750051285     
           5           2
          21          10   1.17236750051285     
           6           2
          21          11  0.835589400804376     
           6           2
          21          12  0.835589400804376     
           7           2
          21          13  0.835589400804376     
           7           2
          21          14  0.835589400804376     
           8           2
          21          15   1.12571723986517     
           8           2
          21          16   1.12571723986517     
           9           2
          21          17  0.765094272636877     
           9           2
          21          18  0.765094272636877     
           1           0
          21          19   1.54319107275893     
           1           0
          21          20   1.54319107275893     
           2           1
          21          21   1.01147736636746     
           2           1
          21          22   1.01147736636746     
           3           1
          21          23  0.810973570947974     
           3           1
          21          24  0.810973570947974     
           4           1
          21          25  0.810973570947977     
           4           1
          21          26  0.810973570947977     
           5           2
          21          27   1.17236750051285     
           5           2
          21          28   1.17236750051285     
           6           2
          21          29  0.835589400804376     
           6           2
          21          30  0.835589400804376     
           7           2
          21          31  0.835589400804376     
           7           2
          21          32  0.835589400804376     
           8           2
          21          33   1.12571723986517     
           8           2
          21          34   1.12571723986517     
           9           2
          21          35  0.765094272636877     
           9           2
          21          36  0.765094272636877     
      22           1           0
          22           1   1.49768168442794     
           1           0
          22           2   1.49768168442794     
           2           1
          22           3   1.07256118941223     
           2           1
          22           4   1.07256118941223     
           3           1
          22           5  0.807150568480353     
           3           1
          22           6  0.807150568480353     
           4           1
          22           7  0.807150568480356     
           4           1
          22           8  0.807150568480356     
           5           2
          22           9   1.15143252126846     
           5           2
          22          10   1.15143252126846     
           6           2
          22          11  0.843559667963050     
           6           2
          22          12  0.843559667963050     
           7           2
          22          13  0.843559667963050     
           7           2
          22          14  0.843559667963050     
           8           2
          22          15   1.12388322008170     
           8           2
          22          16   1.12388322008170     
           9           2
          22          17  0.764769628225416     
           9           2
          22          18  0.764769628225416     
           1           0
          22          19   1.49768168442794     
           1           0
          22          20   1.49768168442794     
           2           1
          22          21   1.07256118941223     
           2           1
          22          22   1.07256118941223     
           3           1
          22          23  0.807150568480353     
           3           1
          22          24  0.807150568480353     
           4           1
          22          25  0.807150568480356     
           4           1
          22          26  0.807150568480356     
           5           2
          22          27   1.15143252126846     
           5           2
          22          28   1.15143252126846     
           6           2
          22          29  0.843559667963050     
           6           2
          22          30  0.843559667963050     
           7           2
          22          31  0.843559667963050     
           7           2
          22          32  0.843559667963050     
           8           2
          22          33   1.12388322008170     
           8           2
          22          34   1.12388322008170     
           9           2
          22          35  0.764769628225416     
           9           2
          22          36  0.764769628225416     
      23           1           0
          23           1   1.39675504891841     
           1           0
          23           2   1.39675504891841     
           2           1
          23           3   1.20718023704085     
           2           1
          23           4   1.20718023704085     
           3           1
          23           5  0.798633724004172     
           3           1
          23           6  0.798633724004172     
           4           1
          23           7  0.798633724004175     
           4           1
          23           8  0.798633724004175     
           5           2
          23           9   1.10661986288987     
           5           2
          23          10   1.10661986288987     
           6           2
          23          11  0.861499774739100     
           6           2
          23          12  0.861499774739100     
           7           2
          23          13  0.861499774739100     
           7           2
          23          14  0.861499774739100     
           8           2
          23          15   1.11973253323066     
           8           2
          23          16   1.11973253323066     
           9           2
          23          17  0.763818779801849     
           9           2
          23          18  0.763818779801849     
           1           0
          23          19   1.39675504891841     
           1           0
          23          20   1.39675504891841     
           2           1
          23          21   1.20718023704085     
           2           1
          23          22   1.20718023704085     
           3           1
          23          23  0.798633724004173     
           3           1
          23          24  0.798633724004173     
           4           1
          23          25  0.798633724004176     
           4           1
          23          26  0.798633724004176     
           5           2
          23          27   1.10661986288987     
           5           2
          23          28   1.10661986288987     
           6           2
          23          29  0.861499774739100     
           6           2
          23          30  0.861499774739100     
           7           2
          23          31  0.861499774739100     
           7           2
          23          32  0.861499774739100     
           8           2
          23          33   1.11973253323066     
           8           2
          23          34   1.11973253323066     
           9           2
          23          35  0.763818779801849     
           9           2
          23          36  0.763818779801849     
      24           1           0
          24           1   1.31713496547553     
           1           0
          24           2   1.31713496547553     
           2           1
          24           3   1.31240848726711     
           2           1
          24           4   1.31240848726711     
           3           1
          24           5  0.791831444272725     
           3           1
          24           6  0.791831444272725     
           4           1
          24           7  0.791831444272728     
           4           1
          24           8  0.791831444272728     
           5           2
          24           9   1.07262529833498     
           5           2
          24          10   1.07262529833498     
           6           2
          24          11  0.875471715643249     
           6           2
          24          12  0.875471715643249     
           7           2
          24          13  0.875471715643249     
           7           2
          24          14  0.875471715643249     
           8           2
          24          15   1.11615443161804     
           8           2
          24          16   1.11615443161804     
           9           2
          24          17  0.762865426558223     
           9           2
          24          18  0.762865426558223     
           1           0
          24          19   1.31713496547553     
           1           0
          24          20   1.31713496547553     
           2           1
          24          21   1.31240848726711     
           2           1
          24          22   1.31240848726711     
           3           1
          24          23  0.791831444272725     
           3           1
          24          24  0.791831444272725     
           4           1
          24          25  0.791831444272728     
           4           1
          24          26  0.791831444272728     
           5           2
          24          27   1.07262529833498     
           5           2
          24          28   1.07262529833498     
           6           2
          24          29  0.875471715643249     
           6           2
          24          30  0.875471715643249     
           7           2
          24          31  0.875471715643249     
           7           2
          24          32  0.875471715643249     
           8           2
          24          33   1.11615443161804     
           8           2
          24          34   1.11615443161804     
           9           2
          24          35  0.762865426558223     
           9           2
          24          36  0.762865426558223     
      25           1           0
          25           1   1.30884755727147     
           1           0
          25           2   1.30884755727147     
           2           1
          25           3  0.966200442051184     
           2           1
          25           4  0.966200442051184     
           3           1
          25           5  0.781704693213258     
           3           1
          25           6  0.781704693213258     
           4           1
          25           7   1.05412330040774     
           4           1
          25           8   1.05412330040774     
           5           2
          25           9   1.10819982934381     
           5           2
          25          10   1.10819982934381     
           6           2
          25          11  0.824982824747300     
           6           2
          25          12  0.824982824747300     
           7           2
          25          13  0.934608084091727     
           7           2
          25          14  0.934608084091727     
           8           2
          25          15   1.08173587406711     
           8           2
          25          16   1.08173587406711     
           9           2
          25          17  0.826175514675271     
           9           2
          25          18  0.826175514675271     
           1           0
          25          19   1.30884755727147     
           1           0
          25          20   1.30884755727147     
           2           1
          25          21  0.966200442051183     
           2           1
          25          22  0.966200442051183     
           3           1
          25          23  0.781704693213258     
           3           1
          25          24  0.781704693213258     
           4           1
          25          25   1.05412330040774     
           4           1
          25          26   1.05412330040774     
           5           2
          25          27   1.10819982934381     
           5           2
          25          28   1.10819982934381     
           6           2
          25          29  0.824982824747300     
           6           2
          25          30  0.824982824747300     
           7           2
          25          31  0.934608084091727     
           7           2
          25          32  0.934608084091727     
           8           2
          25          33   1.08173587406711     
           8           2
          25          34   1.08173587406711     
           9           2
          25          35  0.826175514675271     
           9           2
          25          36  0.826175514675271     
      26           1           0
          26           1   1.27664998304180     
           1           0
          26           2   1.27664998304180     
           2           1
          26           3   1.01387690536977     
           2           1
          26           4   1.01387690536977     
           3           1
          26           5  0.778834870860243     
           3           1
          26           6  0.778834870860243     
           4           1
          26           7   1.04407858741713     
           4           1
          26           8   1.04407858741713     
           5           2
          26           9   1.08454461781537     
           5           2
          26          10   1.08454461781537     
           6           2
          26          11  0.831527698494719     
           6           2
          26          12  0.831527698494719     
           7           2
          26          13  0.953249416715688     
           7           2
          26          14  0.953249416715688     
           8           2
          26          15   1.07909590072261     
           8           2
          26          16   1.07909590072261     
           9           2
          26          17  0.824932321872374     
           9           2
          26          18  0.824932321872374     
           1           0
          26          19   1.27664998304180     
           1           0
          26          20   1.27664998304180     
           2           1
          26          21   1.01387690536977     
           2           1
          26          22   1.01387690536977     
           3           1
          26          23  0.778834870860243     
           3           1
          26          24  0.778834870860243     
           4           1
          26          25   1.04407858741713     
           4           1
          26          26   1.04407858741713     
           5           2
          26          27   1.08454461781537     
           5           2
          26          28   1.08454461781537     
           6           2
          26          29  0.831527698494719     
           6           2
          26          30  0.831527698494719     
           7           2
          26          31  0.953249416715688     
           7           2
          26          32  0.953249416715688     
           8           2
          26          33   1.07909590072261     
           8           2
          26          34   1.07909590072261     
           9           2
          26          35  0.824932321872374     
           9           2
          26          36  0.824932321872374     
      27           1           0
          27           1   1.20506619322798     
           1           0
          27           2   1.20506619322798     
           2           1
          27           3   1.11945082502427     
           2           1
          27           4   1.11945082502427     
           3           1
          27           5  0.772497772737169     
           3           1
          27           6  0.772497772737169     
           4           1
          27           7   1.02184429753320     
           4           1
          27           8   1.02184429753320     
           5           2
          27           9   1.03326232738297     
           5           2
          27          10   1.03326232738297     
           6           2
          27          11  0.846322634803049     
           6           2
          27          12  0.846322634803049     
           7           2
          27          13  0.995341791175077     
           7           2
          27          14  0.995341791175077     
           8           2
          27          15   1.07355409539283     
           8           2
          27          16   1.07355409539283     
           9           2
          27          17  0.822432492756034     
           9           2
          27          18  0.822432492756034     
           1           0
          27          19   1.20506619322798     
           1           0
          27          20   1.20506619322798     
           2           1
          27          21   1.11945082502427     
           2           1
          27          22   1.11945082502427     
           3           1
          27          23  0.772497772737169     
           3           1
          27          24  0.772497772737169     
           4           1
          27          25   1.02184429753320     
           4           1
          27          26   1.02184429753320     
           5           2
          27          27   1.03326232738297     
           5           2
          27          28   1.03326232738297     
           6           2
          27          29  0.846322634803049     
           6           2
          27          30  0.846322634803049     
           7           2
          27          31  0.995341791175077     
           7           2
          27          32  0.995341791175077     
           8           2
          27          33   1.07355409539283     
           8           2
          27          34   1.07355409539283     
           9           2
          27          35  0.822432492756034     
           9           2
          27          36  0.822432492756034     
      28           1           0
          28           1   1.14841531036566     
           1           0
          28           2   1.14841531036566     
           2           1
          28           3   1.20244683464543     
           2           1
          28           4   1.20244683464543     
           3           1
          28           5  0.767438943441155     
           3           1
          28           6  0.767438943441155     
           4           1
          28           7   1.00421312580777     
           4           1
          28           8   1.00421312580777     
           5           2
          28           9  0.993707034294848     
           5           2
          28          10  0.993707034294848     
           6           2
          28          11  0.857803461724978     
           6           2
          28          12  0.857803461724978     
           7           2
          28          13   1.02862062188384     
           7           2
          28          14   1.02862062188384     
           8           2
          28          15   1.06903985906964     
           8           2
          28          16   1.06903985906964     
           9           2
          28          17  0.820442135460290     
           9           2
          28          18  0.820442135460290     
           1           0
          28          19   1.14841531036566     
           1           0
          28          20   1.14841531036566     
           2           1
          28          21   1.20244683464543     
           2           1
          28          22   1.20244683464543     
           3           1
          28          23  0.767438943441155     
           3           1
          28          24  0.767438943441155     
           4           1
          28          25   1.00421312580777     
           4           1
          28          26   1.00421312580777     
           5           2
          28          27  0.993707034294848     
           5           2
          28          28  0.993707034294848     
           6           2
          28          29  0.857803461724978     
           6           2
          28          30  0.857803461724978     
           7           2
          28          31   1.02862062188384     
           7           2
          28          32   1.02862062188384     
           8           2
          28          33   1.06903985906964     
           8           2
          28          34   1.06903985906964     
           9           2
          28          35  0.820442135460290     
           9           2
          28          36  0.820442135460290     
      29           1           0
          29           1   1.06597024408988     
           1           0
          29           2   1.06597024408988     
           2           1
          29           3  0.915614213895490     
           2           1
          29           4  0.915614213895490     
           3           1
          29           5  0.750037450632482     
           3           1
          29           6  0.750037450632482     
           4           1
          29           7   1.29083771751834     
           4           1
          29           8   1.29083771751834     
           5           2
          29           9   1.04192638779375     
           5           2
          29          10   1.04192638779375     
           6           2
[...]
          54           7   1.19016318052992     
           4           1
          54           8   1.19016318052992     
           5           2
          54           9  0.924718233162261     
           5           2
          54          10  0.924718233162261     
           6           2
          54          11  0.975349405624312     
           6           2
          54          12  0.975349405624312     
           7           2
          54          13   1.05953243126034     
           7           2
          54          14   1.05953243126034     
           8           2
          54          15  0.754180356730724     
           8           2
          54          16  0.754180356730724     
           9           2
          54          17   1.28492317349375     
           9           2
          54          18   1.28492317349375     
           1           0
          54          19  0.731419624727586     
           1           0
          54          20  0.731419624727586     
           2           1
          54          21  0.840204644856445     
           2           1
          54          22  0.840204644856445     
           3           1
          54          23   1.02385239026153     
           3           1
          54          24   1.02385239026153     
           4           1
          54          25   1.19016318052992     
           4           1
          54          26   1.19016318052992     
           5           2
          54          27  0.924718233162262     
           5           2
          54          28  0.924718233162262     
           6           2
          54          29  0.975349405624313     
           6           2
          54          30  0.975349405624313     
           7           2
          54          31   1.05953243126034     
           7           2
          54          32   1.05953243126034     
           8           2
          54          33  0.754180356730724     
           8           2
          54          34  0.754180356730724     
           9           2
          54          35   1.28492317349375     
           9           2
          54          36   1.28492317349375     
      55           1           0
          55           1  0.716876986640562     
           1           0
          55           2  0.716876986640562     
           2           1
          55           3  0.876793239497562     
           2           1
          55           4  0.876793239497562     
           3           1
          55           5   1.01265742128380     
           3           1
          55           6   1.01265742128380     
           4           1
          55           7   1.17231482828409     
           4           1
          55           8   1.17231482828409     
           5           2
          55           9  0.871499529291290     
           5           2
          55          10  0.871499529291290     
           6           2
          55          11   1.00697868926649     
           6           2
          55          12   1.00697868926649     
           7           2
          55          13   1.10651059897866     
           7           2
          55          14   1.10651059897866     
           8           2
          55          15  0.751956824851479     
           8           2
          55          16  0.751956824851479     
           9           2
          55          17   1.26997260168068     
           9           2
          55          18   1.26997260168068     
           1           0
          55          19  0.716876986640562     
           1           0
          55          20  0.716876986640562     
           2           1
          55          21  0.876793239497562     
           2           1
          55          22  0.876793239497562     
           3           1
          55          23   1.01265742128380     
           3           1
          55          24   1.01265742128380     
           4           1
          55          25   1.17231482828409     
           4           1
          55          26   1.17231482828409     
           5           2
          55          27  0.871499529291290     
           5           2
          55          28  0.871499529291290     
           6           2
          55          29   1.00697868926649     
           6           2
          55          30   1.00697868926649     
           7           2
          55          31   1.10651059897866     
           7           2
          55          32   1.10651059897866     
           8           2
          55          33  0.751956824851479     
           8           2
          55          34  0.751956824851479     
           9           2
          55          35   1.26997260168068     
           9           2
          55          36   1.26997260168068     
      56           1           0
          56           1  0.705251341113488     
           1           0
          56           2  0.705251341113488     
           2           1
          56           3  0.905988481763938     
           2           1
          56           4  0.905988481763938     
           3           1
          56           5   1.00366815587628     
           3           1
          56           6   1.00366815587628     
           4           1
          56           7   1.15801114800972     
           4           1
          56           8   1.15801114800972     
           5           2
          56           9  0.829046466245914     
           5           2
          56          10  0.829046466245914     
           6           2
          56          11   1.03214445499033     
           6           2
          56          12   1.03214445499033     
           7           2
          56          13   1.14384440877121     
           7           2
          56          14   1.14384440877121     
           8           2
          56          15  0.750035353815543     
           8           2
          56          16  0.750035353815543     
           9           2
          56          17   1.25790645137023     
           9           2
          56          18   1.25790645137023     
           1           0
          56          19  0.705251341113488     
           1           0
          56          20  0.705251341113488     
           2           1
          56          21  0.905988481763939     
           2           1
          56          22  0.905988481763939     
           3           1
          56          23   1.00366815587628     
           3           1
          56          24   1.00366815587628     
           4           1
          56          25   1.15801114800972     
           4           1
          56          26   1.15801114800972     
           5           2
          56          27  0.829046466245914     
           5           2
          56          28  0.829046466245914     
           6           2
          56          29   1.03214445499033     
           6           2
          56          30   1.03214445499033     
           7           2
          56          31   1.14384440877121     
           7           2
          56          32   1.14384440877121     
           8           2
          56          33  0.750035353815544     
           8           2
          56          34  0.750035353815544     
           9           2
          56          35   1.25790645137023     
           9           2
          56          36   1.25790645137023     
      57           1           0
          57           1  0.678207023192393     
           1           0
          57           2  0.678207023192393     
           2           1
          57           3  0.803603157850862     
           2           1
          57           4  0.803603157850862     
           3           1
          57           5   1.12363053825484     
           3           1
          57           6   1.12363053825484     
           4           1
          57           7   1.12363053825484     
           4           1
          57           8   1.12363053825484     
           5           2
          57           9  0.930633799344943     
           5           2
          57          10  0.930633799344943     
           6           2
          57          11   1.01412899916787     
           6           2
          57          12   1.01412899916787     
           7           2
          57          13   1.01412899916787     
           7           2
          57          14   1.01412899916787     
           8           2
          57          15  0.670769665553784     
           8           2
          57          16  0.670769665553784     
           9           2
          57          17   1.40373368479850     
           9           2
          57          18   1.40373368479850     
           1           0
          57          19  0.678207023192393     
           1           0
          57          20  0.678207023192393     
           2           1
          57          21  0.803603157850862     
           2           1
          57          22  0.803603157850862     
           3           1
          57          23   1.12363053825484     
           3           1
          57          24   1.12363053825484     
           4           1
          57          25   1.12363053825484     
           4           1
          57          26   1.12363053825484     
           5           2
          57          27  0.930633799344942     
           5           2
          57          28  0.930633799344942     
           6           2
          57          29   1.01412899916787     
           6           2
          57          30   1.01412899916787     
           7           2
          57          31   1.01412899916787     
           7           2
          57          32   1.01412899916787     
           8           2
          57          33  0.670769665553784     
           8           2
          57          34  0.670769665553784     
           9           2
          57          35   1.40373368479850     
           9           2
          57          36   1.40373368479850     
      58           1           0
          58           1  0.673507768615445     
           1           0
          58           2  0.673507768615445     
           2           1
          58           3  0.816877542343192     
           2           1
          58           4  0.816877542343192     
           3           1
          58           5   1.11781491966879     
           3           1
          58           6   1.11781491966879     
           4           1
          58           7   1.11781491966879     
           4           1
          58           8   1.11781491966879     
           5           2
          58           9  0.907704504486080     
           5           2
          58          10  0.907704504486080     
           6           2
          58          11   1.03092032286963     
           6           2
          58          12   1.03092032286963     
           7           2
          58          13   1.03092032286963     
           7           2
          58          14   1.03092032286963     
           8           2
          58          15  0.670537342522352     
           8           2
          58          16  0.670537342522352     
           9           2
          58          17   1.39596544226396     
           9           2
          58          18   1.39596544226396     
           1           0
          58          19  0.673507768615445     
           1           0
          58          20  0.673507768615445     
           2           1
          58          21  0.816877542343191     
           2           1
          58          22  0.816877542343191     
           3           1
          58          23   1.11781491966879     
           3           1
          58          24   1.11781491966879     
           4           1
          58          25   1.11781491966879     
           4           1
          58          26   1.11781491966879     
           5           2
          58          27  0.907704504486080     
           5           2
          58          28  0.907704504486080     
           6           2
          58          29   1.03092032286963     
           6           2
          58          30   1.03092032286963     
           7           2
          58          31   1.03092032286963     
           7           2
          58          32   1.03092032286963     
           8           2
          58          33  0.670537342522352     
           8           2
          58          34  0.670537342522352     
           9           2
          58          35   1.39596544226396     
           9           2
          58          36   1.39596544226396     
      59           1           0
          59           1  0.662967566651358     
           1           0
          59           2  0.662967566651358     
           2           1
          59           3  0.846864764217184     
           2           1
          59           4  0.846864764217184     
           3           1
          59           5   1.10480956052322     
           3           1
          59           6   1.10480956052322     
           4           1
          59           7   1.10480956052322     
           4           1
          59           8   1.10480956052322     
           5           2
          59           9  0.857294879496777     
           5           2
          59          10  0.857294879496777     
           6           2
          59          11   1.06894410600979     
           6           2
          59          12   1.06894410600979     
           7           2
          59          13   1.06894410600979     
           7           2
          59          14   1.06894410600979     
           8           2
          59          15  0.669929012614003     
           8           2
          59          16  0.669929012614003     
           9           2
          59          17   1.37881945885232     
           9           2
          59          18   1.37881945885232     
           1           0
          59          19  0.662967566651358     
           1           0
          59          20  0.662967566651358     
           2           1
          59          21  0.846864764217184     
           2           1
          59          22  0.846864764217184     
           3           1
          59          23   1.10480956052322     
           3           1
          59          24   1.10480956052322     
           4           1
          59          25   1.10480956052322     
           4           1
          59          26   1.10480956052322     
           5           2
          59          27  0.857294879496777     
           5           2
          59          28  0.857294879496777     
           6           2
          59          29   1.06894410600979     
           6           2
          59          30   1.06894410600979     
           7           2
          59          31   1.06894410600979     
           7           2
          59          32   1.06894410600979     
           8           2
          59          33  0.669929012614003     
           8           2
          59          34  0.669929012614003     
           9           2
          59          35   1.37881945885232     
           9           2
          59          36   1.37881945885232     
      60
           1           0
          60           1  0.654532066962909     
           1           0
          60           2  0.654532066962909     
           2           1
          60           3  0.870718510874680     
           2           1
          60           4  0.870718510874680     
           3           1
          60           5   1.09444369248335     
           3           1
          60           6   1.09444369248335     
           4           1
          60           7   1.09444369248336     
           4           1
          60           8   1.09444369248336     
           5           2
          60           9  0.816342766680616     
           5           2
          60          10  0.816342766680616     
           6           2
          60          11   1.09937057136142     
           6           2
          60          12   1.09937057136142     
           7           2
          60          13   1.09937057136142     
           7           2
          60          14   1.09937057136142     
           8           2
          60          15  0.669814496142672     
           8           2
          60          16  0.669814496142672     
           9           2
          60          17   1.36511167271779     
           9           2
          60          18   1.36511167271779     
           1           0
          60          19  0.654532066962909     
           1           0
          60          20  0.654532066962909     
           2           1
          60          21  0.870718510874680     
           2           1
          60          22  0.870718510874680     
           3           1
          60          23   1.09444369248335     
           3           1
          60          24   1.09444369248335     
           4           1
          60          25   1.09444369248336     
           4           1
          60          26   1.09444369248336     
           5           2
          60          27  0.816342766680616     
           5           2
          60          28  0.816342766680616     
           6           2
          60          29   1.09937057136142     
           6           2
          60          30   1.09937057136142     
           7           2
          60          31   1.09937057136142     
           7           2
          60          32   1.09937057136142     
           8           2
          60          33  0.669814496142672     
           8           2
          60          34  0.669814496142672     
           9           2
          60          35   1.36511167271779     
           9           2
          60          36   1.36511167271779     


  AMN calculated
 
  ---------------
  *** Compute  M 
  ---------------
 
  MMN: iknum =       60
       1       2       3       4       5       6       7       8       9      10
      11      12      13      14      15      16      17      18      19      20
      21      22      23      24      25      26      27      28      29      30
      31      32      33      34      35      36      37      38      39      40
      41      42      43      44      45      46      47      48      49      50
      51      52      53      54      55      56      57      58      59      60


  IBZ MMN calculated
 
  --------------------------------
  *** Spin matrix is not computed 
  --------------------------------
 
  -----------------------------------
  *** Orbital terms are not computed 
  -----------------------------------
 
  -----------------------------------
  *** SHC terms are not computed 
  -----------------------------------
 
  ----------------
  *** Write bands 
  ----------------
 
 
  -----------------------------
  *** Plot info is not printed 
  -----------------------------
 
  -----------------------------
  *** Parity info is not printed 
  -----------------------------
 
  ------------
  *** Stop pp 
  ------------
 
 
     init_pw2wan  :      1.86s CPU      4.33s WALL (       1 calls)
     compute_amn  :     12.87s CPU     12.98s WALL (       1 calls)
     compute_mmn_ :    121.18s CPU    122.35s WALL (       1 calls)
 
     PW2WANNIER   :   2m15.91s CPU   2m19.69s WALL

 
   This run was terminated on:  21:42:46  11Jul2023            

=------------------------------------------------------------------------------=
   JOB DONE.
=------------------------------------------------------------------------------=
 
