 
             +---------------------------------------------------+
             |                                                   |
             |                   WANNIER90                       |
             |                                                   |
             +---------------------------------------------------+
             |                                                   |
             |        Welcome to the Maximally-Localized         |
             |        Generalized Wannier Functions code         |
             |            http://www.wannier.org                 |
             |                                                   |
             |                                                   |
             |  Wannier90 Developer Group:                       |
             |    Giovanni Pizzi    (EPFL)                       |
             |    Valerio Vitale    (Cambridge)                  |
             |    David Vanderbilt  (Rutgers University)         |
             |    Nicola Marzari    (EPFL)                       |
             |    Ivo Souza         (Universidad del Pais Vasco) |
             |    Arash A. Mostofi  (Imperial College London)    |
             |    Jonathan R. Yates (University of Oxford)       |
             |                                                   |
             |  For the full list of Wannier90 3.x authors,      |
             |  please check the code documentation and the      |
             |  README on the GitHub page of the code            |
             |                                                   |
             |                                                   |
             |  Please cite                                      |
             |                                                   |
             |  [ref] "Wannier90 as a community code:            |
             |        new features and applications",            |
             |        G. Pizzi et al., J. Phys. Cond. Matt. 32,  |
             |        165902 (2020).                             |
             |        http://doi.org/10.1088/1361-648X/ab51ff    |
             |                                                   |
             |  in any publications arising from the use of      |
             |  this code. For the method please cite            |
             |                                                   |
             |  [ref] "Maximally Localized Generalised Wannier   |
             |         Functions for Composite Energy Bands"     |
             |         N. Marzari and D. Vanderbilt              |
             |         Phys. Rev. B 56 12847 (1997)              |
             |                                                   |
             |  [ref] "Maximally Localized Wannier Functions     |
             |         for Entangled Energy Bands"               |
             |         I. Souza, N. Marzari and D. Vanderbilt    |
             |         Phys. Rev. B 65 035109 (2001)             |
             |                                                   |
             |                                                   |
             | Copyright (c) 1996-2020                           |
             |        The Wannier90 Developer Group and          |
             |        individual contributors                    |
             |                                                   |
             |      Release: 3.1.0        5th March    2020      |
             |                                                   |
             | This program is free software; you can            |
             | redistribute it and/or modify it under the terms  |
             | of the GNU General Public License as published by |
             | the Free Software Foundation; either version 2 of |
             | the License, or (at your option) any later version|
             |                                                   |
             | This program is distributed in the hope that it   |
             | will be useful, but WITHOUT ANY WARRANTY; without |
             | even the implied warranty of MERCHANTABILITY or   |
             | FITNESS FOR A PARTICULAR PURPOSE. See the GNU     |
             | General Public License for more details.          |
             |                                                   |
             | You should have received a copy of the GNU General|
             | Public License along with this program; if not,   |
             | write to the Free Software Foundation, Inc.,      |
             | 675 Mass Ave, Cambridge, MA 02139, USA.           |
             |                                                   |
             +---------------------------------------------------+
             |    Execution started on 23May2024 at 15:56:59     |
             +---------------------------------------------------+
 
 ******************************************************************************
 * -> Using CODATA 2006 constant values                                       *
 *    (http://physics.nist.gov/cuu/Constants/index.html)                      *
 * -> Using Bohr value from CODATA                                            *
 ******************************************************************************
 

 Running in parallel on  22 CPUs

 
                                    ------
                                    SYSTEM
                                    ------
 
                              Lattice Vectors (Ang)
                    a_1     2.506611   0.000000   0.000000
                    a_2     0.000000   2.506611   0.000000
                    a_3     0.000000   0.000000   3.581316
 
                   Unit Cell Volume:      22.50176  (Ang^3)
 
                        Reciprocal-Space Vectors (Ang^-1)
                    b_1     2.506646   0.000000   0.000000
                    b_2     0.000000   2.506646   0.000000
                    b_3     0.000000   0.000000   1.754435
  
 *----------------------------------------------------------------------------*
 |   Site       Fractional Coordinate          Cartesian Coordinate (Ang)     |
 +----------------------------------------------------------------------------+
 | Fe   1   0.00000   0.00000   0.00000   |    0.00000   0.00000   0.00000    |
 | Ni   1   0.50000   0.50000   0.50000   |    1.25331   1.25331   1.79066    |
 *----------------------------------------------------------------------------*
                                ------------
                                K-POINT GRID
                                ------------
  
             Grid size =  9 x  9 x  7      Total points =  567
  
  
 *---------------------------------- MAIN ------------------------------------*
 |  Number of Wannier Functions               :                36             |
 |  Number of Objective Wannier Functions     :                36             |
 |  Number of input Bloch states              :                50             |
 |  Output verbosity (1=low, 5=high)          :                 1             |
 |  Timing Level (1=low, 5=high)              :                 1             |
 |  Optimisation (0=memory, 3=speed)          :                 3             |
 |  Length Unit                               :               Ang             |
 |  Post-processing setup (write *.nnkp)      :                 F             |
 |  Using Gamma-only branch of algorithms     :                 F             |
 *----------------------------------------------------------------------------*
 *------------------------------- WANNIERISE ---------------------------------*
 |  Total number of iterations                :                 0             |
 |  Number of CG steps before reset           :                 5             |
 |  Trial step length for line search         :             2.000             |
 |  Convergence tolerence                     :         0.100E-09             |
 |  Convergence window                        :                -1             |
 |  Iterations between writing output         :                 1             |
 |  Iterations between backing up to disk     :               100             |
 |  Write r^2_nm to file                      :                 F             |
 |  Write xyz WF centres to file              :                 F             |
 |  Write on-site energies <0n|H|0n> to file  :                 F             |
 |  Use guiding centre to control phases      :                 F             |
 |  Use phases for initial projections        :                 F             |
 *----------------------------------------------------------------------------*
 *------------------------------- DISENTANGLE --------------------------------*
 |  Using band disentanglement                :                 T             |
 |  Total number of iterations                :               200             |
 |  Mixing ratio                              :             0.500             |
 |  Convergence tolerence                     :         1.000E-10             |
 |  Convergence window                        :                 3             |
 *----------------------------------------------------------------------------*
 *-------------------------------- PLOTTING ----------------------------------*
 |  Plotting interpolated bandstructure       :                 T             |
 |   Number of K-path sections                :                 9             |
 |   Divisions along first K-path section     :               100             |
 |   Output format                            :           gnuplot             |
 |   Output mode                              :               s-k             |
 *----------------------------------------------------------------------------*
 |   K-space path sections:                                                   |
 |    From: G       0.000  0.000  0.000     To: X       0.000  0.500  0.000   |
 |    From: X       0.000  0.500  0.000     To: M       0.500  0.500  0.000   |
 |    From: M       0.500  0.500  0.000     To: G       0.000  0.000  0.000   |
 |    From: G       0.000  0.000  0.000     To: Z       0.000  0.000  0.500   |
 |    From: Z       0.000  0.000  0.500     To: R       0.000  0.500  0.500   |
 |    From: R       0.000  0.500  0.500     To: A       0.500  0.500  0.500   |
 |    From: A       0.500  0.500  0.500     To: Z       0.000  0.000  0.500   |
 |    From: X       0.000  0.500  0.000     To: R       0.000  0.500  0.500   |
 |    From: M       0.500  0.500  0.000     To: A       0.500  0.500  0.500   |
 *----------------------------------------------------------------------------*
 |  Plotting Hamiltonian in WF basis          :                 T             |
 *----------------------------------------------------------------------------*
 Time to read parameters        0.046 (sec)

 *---------------------------------- K-MESH ----------------------------------*
 +----------------------------------------------------------------------------+
 |                    Distance to Nearest-Neighbour Shells                    |
 |                    ------------------------------------                    |
 |          Shell             Distance (Ang^-1)          Multiplicity         |
 |          -----             -----------------          ------------         |
 |             1                   0.250634                      2            |
 |             2                   0.278516                      4            |
 |             3                   0.374684                      8            |
 |             4                   0.393881                      4            |
 |             5                   0.466862                      8            |
 |             6                   0.501267                      2            |
 |             7                   0.557032                      4            |
 |             8                   0.573446                      8            |
 |             9                   0.610821                      8            |
 |            10                   0.622781                      8            |
 |            11                   0.637504                      8            |
 |            12                   0.671322                     16            |
 |            13                   0.749369                      8            |
 |            14                   0.751901                      2            |
 |            15                   0.787763                      4            |
 |            16                   0.799453                     16            |
 |            17                   0.801827                      8            |
 |            18                   0.826672                      8            |
 |            19                   0.835549                      4            |
 |            20                   0.848821                      8            |
 |            21                   0.872329                      8            |
 |            22                   0.880745                      8            |
 |            23                   0.915713                     16            |
 |            24                   0.933723                      8            |
 |            25                   0.935756                      8            |
 |            26                   0.974377                      8            |
 |            27                   0.976325                     16            |
 |            28                   1.002534                      2            |
 |            29                   1.004204                      8            |
 |            30                   1.013401                     16            |
 |            31                   1.035009                     16            |
 |            32                   1.040503                      8            |
 |            33                   1.077134                      8            |
 |            34                   1.089002                      8            |
 |            35                   1.114065                      4            |
 |            36                   1.122361                     16            |
 +----------------------------------------------------------------------------+
 | The b-vectors are chosen automatically                                     |
 | The following shells are used:   1,  2                                     |
 +----------------------------------------------------------------------------+
 |                        Shell   # Nearest-Neighbours                        |
 |                        -----   --------------------                        |
 |                          1               2                                 |
 |                          2               4                                 |
 +----------------------------------------------------------------------------+
 | Completeness relation is fully satisfied [Eq. (B1), PRB 56, 12847 (1997)]  |
 +----------------------------------------------------------------------------+
 |                  b_k Vectors (Ang^-1) and Weights (Ang^2)                  |
 |                  ----------------------------------------                  |
 |            No.         b_k(x)      b_k(y)      b_k(z)        w_b           |
 |            ---        --------------------------------     --------        |
 |             1         0.000000    0.000000    0.250634     7.959607        |
 |             2         0.000000    0.000000   -0.250634     7.959607        |
 |             3         0.000000    0.278516    0.000000     6.445686        |
 |             4         0.000000   -0.278516    0.000000     6.445686        |
 |             5         0.278516    0.000000    0.000000     6.445686        |
 |             6        -0.278516    0.000000    0.000000     6.445686        |
 +----------------------------------------------------------------------------+
 |                           b_k Directions (Ang^-1)                          |
 |                           -----------------------                          |
 |            No.           x           y           z                         |
 |            ---        --------------------------------                     |
 |             1         0.000000    0.000000    0.250634                     |
 |             2         0.000000    0.278516    0.000000                     |
 |             3         0.278516    0.000000    0.000000                     |
 +----------------------------------------------------------------------------+
  
 Time to get kmesh              0.250 (sec)
 *============================================================================*
 |                              MEMORY ESTIMATE                               |
 |         Maximum RAM allocated during each phase of the calculation         |
 *============================================================================*
 |                        Disentanglement          240.29 Mb                  |
 |                            Wannierise:          200.17 Mb                  |
 |                          plot_wannier:          200.17 Mb                  |
 *----------------------------------------------------------------------------*
  
 Starting a new Wannier90 calculation ...


 Reading overlaps from pwscf.mmn    : Mmn created by mmn.py

 Reading projections from pwscf.amn : Amn created by amn.py

 Time to read overlaps          5.595 (sec)

 *------------------------------- DISENTANGLE --------------------------------*
 +----------------------------------------------------------------------------+
 |                              Energy  Windows                               |
 |                              ---------------                               |
 |                   Outer:    7.00302  to   62.13992  (eV)                   |
 |                   Inner: **********  to   20.96860  (eV)                   |
 +----------------------------------------------------------------------------+
   Number of target bands to extract:   36

                   Unitarised projection of Wannier functions                  
                   ------------------------------------------                  
   A_mn = <psi_m|g_n> --> S = A.A^+ --> U = S^-1/2.A
   In dis_project... done
   Using an inner window (linner = T)
   In dis_proj_froz... done

                   Extraction of optimally-connected subspace                  
                   ------------------------------------------                  
 +---------------------------------------------------------------------+<-- DIS
 |  Iter     Omega_I(i-1)      Omega_I(i)      Delta (frac.)    Time   |<-- DIS
 +---------------------------------------------------------------------+<-- DIS
       1      31.32307843      28.77248598       8.865E-02      0.00    <-- DIS
       2      29.88814439      28.11836633       6.294E-02      0.03    <-- DIS
       3      28.93244036      27.69941827       4.451E-02      0.06    <-- DIS
       4      28.26265930      27.39460893       3.169E-02      0.09    <-- DIS
       5      27.78699863      27.16365333       2.295E-02      0.12    <-- DIS
       6      27.44183635      26.98359143       1.698E-02      0.15    <-- DIS
       7      27.18511468      26.83984846       1.286E-02      0.18    <-- DIS
       8      26.98925828      26.72273426       9.974E-03      0.21    <-- DIS
       9      26.83610254      26.62560093       7.906E-03      0.24    <-- DIS
      10      26.71354706      26.54377268       6.396E-03      0.27    <-- DIS
      11      26.61340908      26.47389061       5.270E-03      0.30    <-- DIS
      12      26.53005881      26.41349642       4.413E-03      0.33    <-- DIS
      13      26.45955109      26.36076007       3.748E-03      0.35    <-- DIS
      14      26.39906872      26.31429747       3.221E-03      0.38    <-- DIS
      15      26.34656207      26.27304592       2.798E-03      0.41    <-- DIS
      16      26.30051236      26.23617769       2.452E-03      0.44    <-- DIS
      17      26.25977415      26.20303908       2.165E-03      0.47    <-- DIS
      18      26.22346877      26.17310692       1.924E-03      0.50    <-- DIS
      19      26.19091124      26.14595718       1.719E-03      0.53    <-- DIS
      20      26.16155932      26.12124198       1.543E-03      0.56    <-- DIS
      21      26.13497751      26.09867264       1.391E-03      0.59    <-- DIS
      22      26.11081125      26.07800703       1.258E-03      0.62    <-- DIS
      23      26.08876822      26.05904004       1.141E-03      0.65    <-- DIS
      24      26.06860453      26.04159627       1.037E-03      0.68    <-- DIS
      25      26.05011450      26.02552452       9.448E-04      0.71    <-- DIS
      26      26.03312293      26.01069337       8.623E-04      0.74    <-- DIS
      27      26.01747923      25.99698784       7.882E-04      0.77    <-- DIS
      28      26.00305289      25.98430669       7.214E-04      0.80    <-- DIS
      29      25.98972997      25.97256024       6.611E-04      0.83    <-- DIS
      30      25.97741032      25.96166867       6.063E-04      0.86    <-- DIS
      31      25.96600541      25.95156061       5.566E-04      0.89    <-- DIS
      32      25.95543651      25.94217196       5.113E-04      0.92    <-- DIS
      33      25.94563334      25.93344498       4.700E-04      0.95    <-- DIS
      34      25.93653284      25.92532743       4.322E-04      0.98    <-- DIS
      35      25.92807823      25.91777197       3.977E-04      1.01    <-- DIS
      36      25.92021823      25.91073555       3.660E-04      1.04    <-- DIS
      37      25.91290636      25.90417892       3.369E-04      1.06    <-- DIS
      38      25.90610040      25.89806626       3.102E-04      1.09    <-- DIS
      39      25.89976190      25.89236478       2.857E-04      1.12    <-- DIS
      40      25.89385574      25.88704444       2.631E-04      1.15    <-- DIS
      41      25.88834983      25.88207764       2.423E-04      1.18    <-- DIS
      42      25.88321476      25.87743904       2.232E-04      1.21    <-- DIS
      43      25.87842355      25.87310528       2.056E-04      1.24    <-- DIS
      44      25.87395140      25.86905487       1.893E-04      1.27    <-- DIS
      45      25.86977550      25.86526795       1.743E-04      1.30    <-- DIS
      46      25.86587484      25.86172621       1.604E-04      1.33    <-- DIS
      47      25.86223004      25.85841272       1.476E-04      1.36    <-- DIS
      48      25.85882321      25.85531180       1.358E-04      1.38    <-- DIS
      49      25.85563782      25.85240897       1.249E-04      1.41    <-- DIS
      50      25.85265861      25.84969078       1.148E-04      1.44    <-- DIS
      51      25.84987141      25.84714478       1.055E-04      1.47    <-- DIS
      52      25.84726314      25.84475943       9.688E-05      1.50    <-- DIS
      53      25.84482167      25.84252400       8.891E-05      1.53    <-- DIS
      54      25.84253573      25.84042853       8.155E-05      1.56    <-- DIS
      55      25.84039489      25.83846378       7.474E-05      1.59    <-- DIS
      56      25.83838946      25.83662115       6.844E-05      1.62    <-- DIS
      57      25.83651043      25.83489264       6.262E-05      1.65    <-- DIS
      58      25.83474943      25.83327080       5.724E-05      1.68    <-- DIS
      59      25.83309868      25.83174872       5.226E-05      1.71    <-- DIS
      60      25.83155096      25.83031993       4.766E-05      1.74    <-- DIS
      61      25.83009952      25.82897844       4.340E-05      1.77    <-- DIS
      62      25.82873810      25.82771864       3.947E-05      1.80    <-- DIS
      63      25.82746086      25.82653531       3.584E-05      1.83    <-- DIS
      64      25.82626236      25.82542358       3.248E-05      1.86    <-- DIS
      65      25.82513753      25.82437890       2.938E-05      1.88    <-- DIS
      66      25.82408165      25.82339705       2.651E-05      1.91    <-- DIS
      67      25.82309031      25.82247405       2.387E-05      1.94    <-- DIS
      68      25.82215940      25.82160622       2.142E-05      1.97    <-- DIS
      69      25.82128508      25.82079010       1.917E-05      2.00    <-- DIS
      70      25.82046377      25.82002247       1.709E-05      2.03    <-- DIS
      71      25.81969212      25.81930030       1.518E-05      2.06    <-- DIS
      72      25.81896701      25.81862079       1.341E-05      2.09    <-- DIS
      73      25.81828552      25.81798130       1.178E-05      2.12    <-- DIS
      74      25.81764493      25.81737935       1.029E-05      2.15    <-- DIS
      75      25.81704267      25.81681265       8.910E-06      2.18    <-- DIS
      76      25.81647638      25.81627904       7.644E-06      2.21    <-- DIS
      77      25.81594381      25.81577649       6.481E-06      2.24    <-- DIS
      78      25.81544289      25.81530311       5.415E-06      2.27    <-- DIS
      79      25.81497166      25.81485714       4.436E-06      2.29    <-- DIS
      80      25.81452829      25.81443690       3.540E-06      2.32    <-- DIS
      81      25.81411107      25.81404085       2.720E-06      2.35    <-- DIS
      82      25.81371840      25.81366753       1.971E-06      2.38    <-- DIS
      83      25.81334879      25.81331557       1.287E-06      2.41    <-- DIS
      84      25.81300082      25.81298369       6.634E-07      2.44    <-- DIS
      85      25.81267318      25.81267070       9.624E-08      2.47    <-- DIS
      86      25.81236465      25.81237546      -4.190E-07      2.50    <-- DIS
      87      25.81207405      25.81209692      -8.861E-07      2.53    <-- DIS
      88      25.81180031      25.81183409      -1.309E-06      2.56    <-- DIS
      89      25.81154242      25.81158604      -1.690E-06      2.59    <-- DIS
      90      25.81129941      25.81135189      -2.033E-06      2.62    <-- DIS
      91      25.81107040      25.81113083      -2.341E-06      2.65    <-- DIS
      92      25.81085455      25.81092209      -2.617E-06      2.67    <-- DIS
      93      25.81065108      25.81072494      -2.862E-06      2.70    <-- DIS
      94      25.81045923      25.81053871      -3.079E-06      2.73    <-- DIS
      95      25.81027833      25.81036276      -3.271E-06      2.76    <-- DIS
      96      25.81010772      25.81019649      -3.439E-06      2.79    <-- DIS
      97      25.80994679      25.81003934      -3.586E-06      2.82    <-- DIS
      98      25.80979497      25.80989077      -3.712E-06      2.85    <-- DIS
      99      25.80965171      25.80975031      -3.820E-06      2.88    <-- DIS
     100      25.80951653      25.80961746      -3.911E-06      2.91    <-- DIS
     101      25.80938893      25.80949181      -3.986E-06      2.94    <-- DIS
     102      25.80926848      25.80937293      -4.047E-06      2.97    <-- DIS
     103      25.80915475      25.80926043      -4.095E-06      3.00    <-- DIS
     104      25.80904735      25.80915396      -4.130E-06      3.03    <-- DIS
     105      25.80894592      25.80905316      -4.155E-06      3.06    <-- DIS
     106      25.80885010      25.80895772      -4.170E-06      3.08    <-- DIS
     107      25.80875957      25.80886733      -4.175E-06      3.11    <-- DIS
     108      25.80867401      25.80878170      -4.173E-06      3.14    <-- DIS
     109      25.80859315      25.80870057      -4.162E-06      3.17    <-- DIS
     110      25.80851670      25.80862367      -4.145E-06      3.20    <-- DIS
     111      25.80844442      25.80855079      -4.121E-06      3.23    <-- DIS
     112      25.80837607      25.80848168      -4.092E-06      3.26    <-- DIS
     113      25.80831141      25.80841613      -4.058E-06      3.29    <-- DIS
     114      25.80825023      25.80835395      -4.019E-06      3.32    <-- DIS
     115      25.80819234      25.80829496      -3.976E-06      3.35    <-- DIS
     116      25.80813755      25.80823896      -3.930E-06      3.38    <-- DIS
     117      25.80808568      25.80818581      -3.880E-06      3.41    <-- DIS
     118      25.80803655      25.80813533      -3.827E-06      3.43    <-- DIS
     119      25.80799003      25.80808738      -3.772E-06      3.46    <-- DIS
     120      25.80794595      25.80804183      -3.715E-06      3.49    <-- DIS
     121      25.80790419      25.80799854      -3.656E-06      3.52    <-- DIS
     122      25.80786460      25.80795739      -3.595E-06      3.55    <-- DIS
     123      25.80782706      25.80791825      -3.533E-06      3.58    <-- DIS
     124      25.80779147      25.80788103      -3.470E-06      3.61    <-- DIS
     125      25.80775771      25.80784562      -3.406E-06      3.64    <-- DIS
     126      25.80772567      25.80781191      -3.342E-06      3.67    <-- DIS
     127      25.80769526      25.80777982      -3.277E-06      3.70    <-- DIS
     128      25.80766640      25.80774927      -3.211E-06      3.73    <-- DIS
     129      25.80763898      25.80772016      -3.145E-06      3.76    <-- DIS
     130      25.80761294      25.80769242      -3.080E-06      3.79    <-- DIS
     131      25.80758820      25.80766598      -3.014E-06      3.81    <-- DIS
     132      25.80756468      25.80764077      -2.948E-06      3.84    <-- DIS
     133      25.80754231      25.80761672      -2.883E-06      3.87    <-- DIS
     134      25.80752104      25.80759378      -2.818E-06      3.90    <-- DIS
     135      25.80750080      25.80757188      -2.754E-06      3.93    <-- DIS
     136      25.80748154      25.80755097      -2.690E-06      3.96    <-- DIS
     137      25.80746320      25.80753100      -2.627E-06      3.99    <-- DIS
     138      25.80744574      25.80751192      -2.565E-06      4.02    <-- DIS
     139      25.80742909      25.80749368      -2.503E-06      4.05    <-- DIS
     140      25.80741323      25.80747624      -2.442E-06      4.08    <-- DIS
     141      25.80739811      25.80745956      -2.381E-06      4.11    <-- DIS
     142      25.80738368      25.80744361      -2.322E-06      4.14    <-- DIS
     143      25.80736991      25.80742833      -2.264E-06      4.17    <-- DIS
     144      25.80735677      25.80741370      -2.206E-06      4.20    <-- DIS
     145      25.80734422      25.80739969      -2.149E-06      4.22    <-- DIS
     146      25.80733223      25.80738627      -2.094E-06      4.25    <-- DIS
     147      25.80732077      25.80737339      -2.039E-06      4.28    <-- DIS
     148      25.80730982      25.80736105      -1.985E-06      4.31    <-- DIS
     149      25.80729934      25.80734921      -1.933E-06      4.34    <-- DIS
     150      25.80728931      25.80733785      -1.881E-06      4.37    <-- DIS
     151      25.80727971      25.80732694      -1.830E-06      4.40    <-- DIS
     152      25.80727051      25.80731646      -1.781E-06      4.43    <-- DIS
     153      25.80726170      25.80730639      -1.732E-06      4.46    <-- DIS
     154      25.80725325      25.80729672      -1.684E-06      4.49    <-- DIS
     155      25.80724515      25.80728741      -1.638E-06      4.52    <-- DIS
     156      25.80723737      25.80727846      -1.592E-06      4.55    <-- DIS
     157      25.80722991      25.80726985      -1.547E-06      4.58    <-- DIS
     158      25.80722275      25.80726155      -1.504E-06      4.60    <-- DIS
     159      25.80721586      25.80725357      -1.461E-06      4.63    <-- DIS
     160      25.80720924      25.80724587      -1.419E-06      4.66    <-- DIS
     161      25.80720288      25.80723846      -1.379E-06      4.69    <-- DIS
     162      25.80719675      25.80723131      -1.339E-06      4.72    <-- DIS
     163      25.80719086      25.80722441      -1.300E-06      4.75    <-- DIS
     164      25.80718518      25.80721776      -1.262E-06      4.78    <-- DIS
     165      25.80717971      25.80721134      -1.226E-06      4.81    <-- DIS
     166      25.80717444      25.80720514      -1.190E-06      4.84    <-- DIS
     167      25.80716935      25.80719915      -1.154E-06      4.87    <-- DIS
     168      25.80716445      25.80719336      -1.120E-06      4.90    <-- DIS
     169      25.80715971      25.80718776      -1.087E-06      4.93    <-- DIS
     170      25.80715514      25.80718235      -1.054E-06      4.96    <-- DIS
     171      25.80715072      25.80717711      -1.023E-06      4.99    <-- DIS
     172      25.80714645      25.80717205      -9.916E-07      5.02    <-- DIS
     173      25.80714233      25.80716714      -9.615E-07      5.04    <-- DIS
     174      25.80713833      25.80716239      -9.323E-07      5.07    <-- DIS
     175      25.80713447      25.80715779      -9.037E-07      5.10    <-- DIS
     176      25.80713072      25.80715333      -8.760E-07      5.13    <-- DIS
     177      25.80712710      25.80714901      -8.489E-07      5.16    <-- DIS
     178      25.80712358      25.80714481      -8.226E-07      5.19    <-- DIS
     179      25.80712018      25.80714075      -7.971E-07      5.22    <-- DIS
     180      25.80711687      25.80713680      -7.722E-07      5.25    <-- DIS
     181      25.80711367      25.80713297      -7.479E-07      5.28    <-- DIS
     182      25.80711056      25.80712925      -7.244E-07      5.31    <-- DIS
     183      25.80710754      25.80712564      -7.015E-07      5.34    <-- DIS
     184      25.80710460      25.80712213      -6.792E-07      5.37    <-- DIS
     185      25.80710175      25.80711872      -6.576E-07      5.40    <-- DIS
     186      25.80709897      25.80711540      -6.365E-07      5.43    <-- DIS
     187      25.80709628      25.80711218      -6.161E-07      5.45    <-- DIS
     188      25.80709365      25.80710904      -5.962E-07      5.48    <-- DIS
     189      25.80709110      25.80710599      -5.769E-07      5.51    <-- DIS
     190      25.80708862      25.80710302      -5.581E-07      5.54    <-- DIS
     191      25.80708620      25.80710013      -5.399E-07      5.57    <-- DIS
     192      25.80708384      25.80709731      -5.222E-07      5.60    <-- DIS
     193      25.80708154      25.80709457      -5.050E-07      5.63    <-- DIS
     194      25.80707930      25.80709190      -4.883E-07      5.66    <-- DIS
     195      25.80707711      25.80708930      -4.720E-07      5.69    <-- DIS
     196      25.80707498      25.80708676      -4.563E-07      5.72    <-- DIS
     197      25.80707291      25.80708429      -4.410E-07      5.75    <-- DIS
     198      25.80707088      25.80708187      -4.262E-07      5.78    <-- DIS
     199      25.80706890      25.80707952      -4.118E-07      5.81    <-- DIS
     200      25.80706696      25.80707723      -3.978E-07      5.83    <-- DIS

     <<< Warning: Maximum number of disentanglement iterations reached >>>
          <<< Disentanglement convergence criteria not satisfied >>>

        Final Omega_I    25.80707723 (Ang^2)

 +----------------------------------------------------------------------------+

 Time to disentangle bands      7.270 (sec)

 done

 
 *------------------------------- WANNIERISE ---------------------------------*
 +--------------------------------------------------------------------+<-- CONV
 | Iter  Delta Spread     RMS Gradient      Spread (Ang^2)      Time  |<-- CONV
 +--------------------------------------------------------------------+<-- CONV
 
 ------------------------------------------------------------------------------
 Initial State
  WF centre and spread    1  ( -0.000000,  0.000000,  0.000000 )     2.06111813
  WF centre and spread    2  (  0.000000, -0.000000, -0.000000 )     2.06111813
  WF centre and spread    3  ( -0.000000,  0.000000,  0.000000 )     2.34096587
  WF centre and spread    4  (  0.000000, -0.000000, -0.000000 )     2.34096587
  WF centre and spread    5  (  0.000000,  0.000000,  0.000000 )     2.37684431
  WF centre and spread    6  ( -0.000000, -0.000000,  0.000000 )     2.37684431
  WF centre and spread    7  ( -0.000000, -0.000000, -0.000000 )     2.37684430
  WF centre and spread    8  (  0.000000,  0.000000, -0.000000 )     2.37684430
  WF centre and spread    9  (  0.000000,  0.000000, -0.000000 )     0.44491358
  WF centre and spread   10  ( -0.000000, -0.000000,  0.000000 )     0.44491358
  WF centre and spread   11  (  0.000000,  0.000000, -0.000000 )     0.45901021
  WF centre and spread   12  ( -0.000000, -0.000000, -0.000000 )     0.45901021
  WF centre and spread   13  ( -0.000000, -0.000000,  0.000000 )     0.45901021
  WF centre and spread   14  (  0.000000,  0.000000,  0.000000 )     0.45901021
  WF centre and spread   15  ( -0.000000,  0.000000,  0.000000 )     0.45530429
  WF centre and spread   16  (  0.000000, -0.000000, -0.000000 )     0.45530429
  WF centre and spread   17  (  0.000000, -0.000000, -0.000000 )     0.46932728
  WF centre and spread   18  ( -0.000000,  0.000000,  0.000000 )     0.46932728
  WF centre and spread   19  (  1.253305,  1.253306,  1.790658 )     1.89746876
  WF centre and spread   20  (  1.253306,  1.253305,  1.790658 )     1.89746876
  WF centre and spread   21  (  1.253305,  1.253306,  1.790658 )     2.20569547
  WF centre and spread   22  (  1.253306,  1.253305,  1.790658 )     2.20569547
  WF centre and spread   23  (  1.253306,  1.253306,  1.790658 )     2.16448557
  WF centre and spread   24  (  1.253305,  1.253305,  1.790658 )     2.16448557
  WF centre and spread   25  (  1.253305,  1.253305,  1.790658 )     2.16448556
  WF centre and spread   26  (  1.253306,  1.253306,  1.790658 )     2.16448556
  WF centre and spread   27  (  1.253306,  1.253305,  1.790658 )     0.38827416
  WF centre and spread   28  (  1.253305,  1.253306,  1.790658 )     0.38827416
  WF centre and spread   29  (  1.253306,  1.253306,  1.790658 )     0.38714459
  WF centre and spread   30  (  1.253305,  1.253305,  1.790658 )     0.38714459
  WF centre and spread   31  (  1.253305,  1.253305,  1.790658 )     0.38714459
  WF centre and spread   32  (  1.253306,  1.253306,  1.790658 )     0.38714459
  WF centre and spread   33  (  1.253306,  1.253306,  1.790658 )     0.38556908
  WF centre and spread   34  (  1.253306,  1.253306,  1.790658 )     0.38556908
  WF centre and spread   35  (  1.253306,  1.253305,  1.790658 )     0.38451194
  WF centre and spread   36  (  1.253305,  1.253306,  1.790658 )     0.38451194
  Sum of centres and spreads ( 22.559499, 22.559499, 32.231844 )    43.61623580
 
      0     0.436E+02     0.0000000000       43.6162357721       7.23  <-- CONV
        O_D=      0.0000000 O_OD=     17.8091585 O_TOT=     43.6162358 <-- SPRD
 ------------------------------------------------------------------------------
 Final State
  WF centre and spread    1  ( -0.000000,  0.000000,  0.000000 )     2.06111813
  WF centre and spread    2  (  0.000000, -0.000000, -0.000000 )     2.06111813
  WF centre and spread    3  ( -0.000000,  0.000000,  0.000000 )     2.34096587
  WF centre and spread    4  (  0.000000, -0.000000, -0.000000 )     2.34096587
  WF centre and spread    5  (  0.000000,  0.000000,  0.000000 )     2.37684431
  WF centre and spread    6  ( -0.000000, -0.000000,  0.000000 )     2.37684431
  WF centre and spread    7  ( -0.000000, -0.000000, -0.000000 )     2.37684430
  WF centre and spread    8  (  0.000000,  0.000000, -0.000000 )     2.37684430
  WF centre and spread    9  (  0.000000,  0.000000, -0.000000 )     0.44491358
  WF centre and spread   10  ( -0.000000, -0.000000,  0.000000 )     0.44491358
  WF centre and spread   11  (  0.000000,  0.000000, -0.000000 )     0.45901021
  WF centre and spread   12  ( -0.000000, -0.000000, -0.000000 )     0.45901021
  WF centre and spread   13  ( -0.000000, -0.000000,  0.000000 )     0.45901021
  WF centre and spread   14  (  0.000000,  0.000000,  0.000000 )     0.45901021
  WF centre and spread   15  ( -0.000000,  0.000000,  0.000000 )     0.45530429
  WF centre and spread   16  (  0.000000, -0.000000, -0.000000 )     0.45530429
  WF centre and spread   17  (  0.000000, -0.000000, -0.000000 )     0.46932728
  WF centre and spread   18  ( -0.000000,  0.000000,  0.000000 )     0.46932728
  WF centre and spread   19  (  1.253305,  1.253306,  1.790658 )     1.89746876
  WF centre and spread   20  (  1.253306,  1.253305,  1.790658 )     1.89746876
  WF centre and spread   21  (  1.253305,  1.253306,  1.790658 )     2.20569547
  WF centre and spread   22  (  1.253306,  1.253305,  1.790658 )     2.20569547
  WF centre and spread   23  (  1.253306,  1.253306,  1.790658 )     2.16448557
  WF centre and spread   24  (  1.253305,  1.253305,  1.790658 )     2.16448557
  WF centre and spread   25  (  1.253305,  1.253305,  1.790658 )     2.16448556
  WF centre and spread   26  (  1.253306,  1.253306,  1.790658 )     2.16448556
  WF centre and spread   27  (  1.253306,  1.253305,  1.790658 )     0.38827416
  WF centre and spread   28  (  1.253305,  1.253306,  1.790658 )     0.38827416
  WF centre and spread   29  (  1.253306,  1.253306,  1.790658 )     0.38714459
  WF centre and spread   30  (  1.253305,  1.253305,  1.790658 )     0.38714459
  WF centre and spread   31  (  1.253305,  1.253305,  1.790658 )     0.38714459
  WF centre and spread   32  (  1.253306,  1.253306,  1.790658 )     0.38714459
  WF centre and spread   33  (  1.253306,  1.253306,  1.790658 )     0.38556908
  WF centre and spread   34  (  1.253306,  1.253306,  1.790658 )     0.38556908
  WF centre and spread   35  (  1.253306,  1.253305,  1.790658 )     0.38451194
  WF centre and spread   36  (  1.253305,  1.253306,  1.790658 )     0.38451194
  Sum of centres and spreads ( 22.559499, 22.559499, 32.231844 )    43.61623580
 
         Spreads (Ang^2)       Omega I      =    25.807077228
        ================       Omega D      =     0.000000000
                               Omega OD     =    17.809158545
    Final Spread (Ang^2)       Omega Total  =    43.616235772
 ------------------------------------------------------------------------------
 Time for wannierise            0.121 (sec)

 done

 *---------------------------------------------------------------------------*
 |                               PLOTTING                                    |
 *---------------------------------------------------------------------------*
 
 
 Calculating interpolated band-structure
 
 Time to calculate interpolated band structure      31.958 (sec)
 
 Time for plotting            104.100 (sec)
 Total Execution Time         117.537 (sec)

 *===========================================================================*
 |                             TIMING INFORMATION                            |
 *===========================================================================*
 |    Tag                                                Ncalls      Time (s)|
 |---------------------------------------------------------------------------|
 |kmesh: get                                        :         1         0.250|
 |overlap: allocate                                 :         1         0.005|
 |overlap: read                                     :         1         5.588|
 |dis: main                                         :         1         7.270|
 |wann: main                                        :         1         0.121|
 |plot: main                                        :         1       104.100|
 *---------------------------------------------------------------------------*
 
 All done: wannier90 exiting
