
     Program PWSCF v.7.0 starts on 23May2024 at 15: 9:22 

     This program is part of the open-source Quantum ESPRESSO suite
     for quantum simulation of materials; please cite
         "P. Giannozzi et al., J. Phys.:Condens. Matter 21 395502 (2009);
         "P. Giannozzi et al., J. Phys.:Condens. Matter 29 465901 (2017);
         "P. Giannozzi et al., J. Chem. Phys. 152 154105 (2020);
          URL http://www.quantum-espresso.org", 
     in publications or presentations arising from this work. More details at
     http://www.quantum-espresso.org/quote

     Parallel version (MPI), running on    22 processors

     MPI processes distributed on     1 nodes
     R & G space division:  proc/nbgrp/npool/nimage =      22
     188623 MiB available memory on the printing compute node when the environment starts
 
     Waiting for input...
     Reading input from standard input

     Current dimensions of program PWSCF are:
     Max number of different atomic species (ntypx) = 10
     Max number of k-points (npk) =  40000
     Max angular momentum in pseudopotentials (lmaxx) =  4

     Fixed quantization axis for GGA:     0.000000    0.000000    1.000000
     Message from routine setup:
     At least one non s.o. pseudo

     Subspace diagonalization in iterative solution of the eigenvalue problem:
     a serial algorithm will be used

 
     Parallelization info
     --------------------
     sticks:   dense  smooth     PW     G-vecs:    dense   smooth      PW
     Min          74      24      8                 3184      596     102
     Max          75      25      9                 3189      601     104
     Sum        1649     545    177                70151    13173    2261
 
     Using Slab Decomposition
 


     bravais-lattice index     =            6
     lattice parameter (alat)  =       5.1554  a.u.
     unit-cell volume          =     189.8042 (a.u.)^3
     number of atoms/cell      =            2
     number of atomic types    =            2
     number of electrons       =        26.00
     number of Kohn-Sham states=           98
     kinetic-energy cutoff     =      64.0000  Ry
     charge density cutoff     =     782.0000  Ry
     Exchange-correlation= PBE
                           (   1   4   3   4   0   0   0)
     Noncollinear calculation with spin-orbit


     celldm(1)=   5.155443  celldm(2)=   0.000000  celldm(3)=   1.385185
     celldm(4)=   0.000000  celldm(5)=   0.000000  celldm(6)=   0.000000

     crystal axes: (cart. coord. in units of alat)
               a(1) = (   1.000000   0.000000   0.000000 )  
               a(2) = (   0.000000   1.000000   0.000000 )  
               a(3) = (   0.000000   0.000000   1.385185 )  

     reciprocal axes: (cart. coord. in units 2 pi/alat)
               b(1) = (  1.000000  0.000000  0.000000 )  
               b(2) = (  0.000000  1.000000  0.000000 )  
               b(3) = (  0.000000  0.000000  0.721925 )  


     PseudoPot. # 1 for Fe read from file:
     /home2/koretsune/PWSCF/pseudo_psl031/Fe.pbe-spn-rrkjus_psl.0.2.1.UPF
     MD5 check sum: ffcf0347a832ff25cbd6031c7d0b600f
     Pseudo is Ultrasoft + core correction, Zval = 16.0
     Generated using "atomic" code by A. Dal Corso  v.5.0.99 svn rev. 10869
     Using radial grid of 1191 points,  6 beta functions with: 
                l(1) =   0
                l(2) =   0
                l(3) =   1
                l(4) =   1
                l(5) =   2
                l(6) =   2
     Q(r) pseudized with 0 coefficients 


     PseudoPot. # 2 for Pt read from file:
     /home2/koretsune/PWSCF/pseudo_psl031/Pt.pbe-n-rrkjus_psl.0.1.UPF
     MD5 check sum: ce1107d01e17cc1780a3d2e71dd4890e
     Pseudo is Ultrasoft + core correction, Zval = 10.0
     Generated using "atomic" code by A. Dal Corso  v.5.0.99 svn rev. 10869
     Using radial grid of 1277 points,  6 beta functions with: 
                l(1) =   0
                l(2) =   0
                l(3) =   1
                l(4) =   1
                l(5) =   2
                l(6) =   2
     Q(r) pseudized with 0 coefficients 


     atomic species   valence    mass     pseudopotential
        Fe            16.00    55.84500     Fe( 1.00)
        Pt            10.00   195.08400     Pt( 1.00)

     16 Sym. Ops., with inversion, found


                                    s                        frac. trans.

      isym =  1     identity                                     

 Time Reversal            0
 cryst.   s( 1) = (     1          0          0      )
                  (     0          1          0      )
                  (     0          0          1      )

 cart.    s( 1) = (  1.0000000  0.0000000  0.0000000 )
                  (  0.0000000  1.0000000  0.0000000 )
                  (  0.0000000  0.0000000  1.0000000 )


      isym =  2     180 deg rotation - cart. axis [0,0,1]        

 Time Reversal            0
 cryst.   s( 2) = (    -1          0          0      )
                  (     0         -1          0      )
                  (     0          0          1      )

 cart.    s( 2) = ( -1.0000000  0.0000000  0.0000000 )
                  (  0.0000000 -1.0000000  0.0000000 )
                  (  0.0000000  0.0000000  1.0000000 )


      isym =  3     180 deg rotation - cart. axis [0,1,0]        

 Time Reversal            1
 cryst.   s( 3) = (    -1          0          0      )
                  (     0          1          0      )
                  (     0          0         -1      )

 cart.    s( 3) = ( -1.0000000  0.0000000  0.0000000 )
                  (  0.0000000  1.0000000  0.0000000 )
                  (  0.0000000  0.0000000 -1.0000000 )


      isym =  4     180 deg rotation - cart. axis [1,0,0]        

 Time Reversal            1
 cryst.   s( 4) = (     1          0          0      )
                  (     0         -1          0      )
                  (     0          0         -1      )

 cart.    s( 4) = (  1.0000000  0.0000000  0.0000000 )
                  (  0.0000000 -1.0000000  0.0000000 )
                  (  0.0000000  0.0000000 -1.0000000 )


      isym =  5     180 deg rotation - cart. axis [1,1,0]        

 Time Reversal            1
 cryst.   s( 5) = (     0          1          0      )
                  (     1          0          0      )
                  (     0          0         -1      )

 cart.    s( 5) = (  0.0000000  1.0000000  0.0000000 )
                  (  1.0000000  0.0000000  0.0000000 )
                  (  0.0000000  0.0000000 -1.0000000 )


      isym =  6     180 deg rotation - cart. axis [1,-1,0]       

 Time Reversal            1
 cryst.   s( 6) = (     0         -1          0      )
                  (    -1          0          0      )
                  (     0          0         -1      )

 cart.    s( 6) = (  0.0000000 -1.0000000  0.0000000 )
                  ( -1.0000000  0.0000000  0.0000000 )
                  (  0.0000000  0.0000000 -1.0000000 )


      isym =  7      90 deg rotation - cart. axis [0,0,-1]       

 Time Reversal            0
 cryst.   s( 7) = (     0         -1          0      )
                  (     1          0          0      )
                  (     0          0          1      )

 cart.    s( 7) = (  0.0000000  1.0000000  0.0000000 )
                  ( -1.0000000  0.0000000  0.0000000 )
                  (  0.0000000  0.0000000  1.0000000 )


      isym =  8      90 deg rotation - cart. axis [0,0,1]        

 Time Reversal            0
 cryst.   s( 8) = (     0          1          0      )
                  (    -1          0          0      )
                  (     0          0          1      )

 cart.    s( 8) = (  0.0000000 -1.0000000  0.0000000 )
                  (  1.0000000  0.0000000  0.0000000 )
                  (  0.0000000  0.0000000  1.0000000 )


      isym =  9     inversion                                    

 Time Reversal            0
 cryst.   s( 9) = (    -1          0          0      )
                  (     0         -1          0      )
                  (     0          0         -1      )

 cart.    s( 9) = ( -1.0000000  0.0000000  0.0000000 )
                  (  0.0000000 -1.0000000  0.0000000 )
                  (  0.0000000  0.0000000 -1.0000000 )


      isym = 10     inv. 180 deg rotation - cart. axis [0,0,1]   

 Time Reversal            0
 cryst.   s(10) = (     1          0          0      )
                  (     0          1          0      )
                  (     0          0         -1      )

 cart.    s(10) = (  1.0000000  0.0000000  0.0000000 )
                  (  0.0000000  1.0000000  0.0000000 )
                  (  0.0000000  0.0000000 -1.0000000 )


      isym = 11     inv. 180 deg rotation - cart. axis [0,1,0]   

 Time Reversal            1
 cryst.   s(11) = (     1          0          0      )
                  (     0         -1          0      )
                  (     0          0          1      )

 cart.    s(11) = (  1.0000000  0.0000000  0.0000000 )
                  (  0.0000000 -1.0000000  0.0000000 )
                  (  0.0000000  0.0000000  1.0000000 )


      isym = 12     inv. 180 deg rotation - cart. axis [1,0,0]   

 Time Reversal            1
 cryst.   s(12) = (    -1          0          0      )
                  (     0          1          0      )
                  (     0          0          1      )

 cart.    s(12) = ( -1.0000000  0.0000000  0.0000000 )
                  (  0.0000000  1.0000000  0.0000000 )
                  (  0.0000000  0.0000000  1.0000000 )


      isym = 13     inv. 180 deg rotation - cart. axis [1,1,0]   

 Time Reversal            1
 cryst.   s(13) = (     0         -1          0      )
                  (    -1          0          0      )
                  (     0          0          1      )

 cart.    s(13) = (  0.0000000 -1.0000000  0.0000000 )
                  ( -1.0000000  0.0000000  0.0000000 )
                  (  0.0000000  0.0000000  1.0000000 )


      isym = 14     inv. 180 deg rotation - cart. axis [1,-1,0]  

 Time Reversal            1
 cryst.   s(14) = (     0          1          0      )
                  (     1          0          0      )
                  (     0          0          1      )

 cart.    s(14) = (  0.0000000  1.0000000  0.0000000 )
                  (  1.0000000  0.0000000  0.0000000 )
                  (  0.0000000  0.0000000  1.0000000 )


      isym = 15     inv.  90 deg rotation - cart. axis [0,0,-1]  

 Time Reversal            0
 cryst.   s(15) = (     0          1          0      )
                  (    -1          0          0      )
                  (     0          0         -1      )

 cart.    s(15) = (  0.0000000 -1.0000000  0.0000000 )
                  (  1.0000000  0.0000000  0.0000000 )
                  (  0.0000000  0.0000000 -1.0000000 )


      isym = 16     inv.  90 deg rotation - cart. axis [0,0,1]   

 Time Reversal            0
 cryst.   s(16) = (     0         -1          0      )
                  (     1          0          0      )
                  (     0          0         -1      )

 cart.    s(16) = (  0.0000000  1.0000000  0.0000000 )
                  ( -1.0000000  0.0000000  0.0000000 )
                  (  0.0000000  0.0000000 -1.0000000 )


     the magnetic double point group is D_4h(4/mmm) [C_4h (4/m) ]
     using the double point group C_4h (4/m) 
     there are 16 classes and  8 irreducible representations
     the character table:

       E     -E    C4    -C4   C2    -C2   C4^3  -C4^3 i     -i    S4^3  -S4^3
                                                                              
G_5+   1.00 -1.00  0.71 -0.71  0.00  0.00  0.71 -0.71  1.00 -1.00  0.71 -0.71
G_6+   1.00 -1.00  0.71 -0.71  0.00  0.00  0.71 -0.71  1.00 -1.00  0.71 -0.71
G_7+   1.00 -1.00 -0.71  0.71  0.00  0.00 -0.71  0.71  1.00 -1.00 -0.71  0.71
G_8+   1.00 -1.00 -0.71  0.71  0.00  0.00 -0.71  0.71  1.00 -1.00 -0.71  0.71
G_5-   1.00 -1.00  0.71 -0.71  0.00  0.00  0.71 -0.71 -1.00  1.00 -0.71  0.71
G_6-   1.00 -1.00  0.71 -0.71  0.00  0.00  0.71 -0.71 -1.00  1.00 -0.71  0.71
G_7-   1.00 -1.00 -0.71  0.71  0.00  0.00 -0.71  0.71 -1.00  1.00  0.71 -0.71
G_8-   1.00 -1.00 -0.71  0.71  0.00  0.00 -0.71  0.71 -1.00  1.00  0.71 -0.71

       s_h   -s_h  S4    -S4  
                              
G_5+   0.00  0.00  0.71 -0.71
G_6+   0.00  0.00  0.71 -0.71
G_7+   0.00  0.00 -0.71  0.71
G_8+   0.00  0.00 -0.71  0.71
G_5-   0.00  0.00 -0.71  0.71
G_6-   0.00  0.00 -0.71  0.71
G_7-   0.00  0.00  0.71 -0.71
G_8-   0.00  0.00  0.71 -0.71

     imaginary part

       E     -E    C4    -C4   C2    -C2   C4^3  -C4^3 i     -i    S4^3  -S4^3
                                                                              
G_5+   0.00  0.00  0.71 -0.71  1.00 -1.00 -0.71  0.71  0.00  0.00  0.71 -0.71
G_6+   0.00  0.00 -0.71  0.71 -1.00  1.00  0.71 -0.71  0.00  0.00 -0.71  0.71
G_7+   0.00  0.00 -0.71  0.71  1.00 -1.00  0.71 -0.71  0.00  0.00 -0.71  0.71
G_8+   0.00  0.00  0.71 -0.71 -1.00  1.00 -0.71  0.71  0.00  0.00  0.71 -0.71
G_5-   0.00  0.00  0.71 -0.71  1.00 -1.00 -0.71  0.71  0.00  0.00 -0.71  0.71
G_6-   0.00  0.00 -0.71  0.71 -1.00  1.00  0.71 -0.71  0.00  0.00  0.71 -0.71
G_7-   0.00  0.00 -0.71  0.71  1.00 -1.00  0.71 -0.71  0.00  0.00  0.71 -0.71
G_8-   0.00  0.00  0.71 -0.71 -1.00  1.00 -0.71  0.71  0.00  0.00 -0.71  0.71

       s_h   -s_h  S4    -S4  
                              
G_5+   1.00 -1.00 -0.71  0.71
G_6+  -1.00  1.00  0.71 -0.71
G_7+   1.00 -1.00  0.71 -0.71
G_8+  -1.00  1.00 -0.71  0.71
G_5-  -1.00  1.00  0.71 -0.71
G_6-   1.00 -1.00 -0.71  0.71
G_7-  -1.00  1.00 -0.71  0.71
G_8-   1.00 -1.00  0.71 -0.71

     the symmetry operations in each class and the name of the first element:

     E             1
          identity                                               
     -E           -1
          identity E                                             
     C4            4
           90 deg rotation - cart. axis [0,0,1]                  
     -C4          -4
           90 deg rotation - cart. axis [0,0,1] E                
     C2            2
          180 deg rotation - cart. axis [0,0,1]                  
     -C2          -2
          180 deg rotation - cart. axis [0,0,1] E                
     C4^3          3
           90 deg rotation - cart. axis [0,0,-1]                 
     -C4^3        -3
           90 deg rotation - cart. axis [0,0,-1] E               
     i             5
          inversion                                              
     -i           -5
          inversion E                                            
     S4^3          8
          inv.  90 deg rotation - cart. axis [0,0,1]             
     -S4^3        -8
          inv.  90 deg rotation - cart. axis [0,0,1] E           
     s_h           6
          inv. 180 deg rotation - cart. axis [0,0,1]             
     -s_h         -6
          inv. 180 deg rotation - cart. axis [0,0,1] E           
     S4            7
          inv.  90 deg rotation - cart. axis [0,0,-1]            
     -S4          -7
          inv.  90 deg rotation - cart. axis [0,0,-1] E          

   Cartesian axes

     site n.     atom                  positions (alat units)
         1           Fe  tau(   1) = (   0.0000000   0.0000000   0.0000000  )
         2           Pt  tau(   2) = (   0.5000000   0.5000000   0.6925927  )

   Crystallographic axes

     site n.     atom                  positions (cryst. coord.)
         1           Fe  tau(   1) = (  0.0000000  0.0000000  0.0000000  )
         2           Pt  tau(   2) = (  0.5000000  0.5000000  0.5000000  )

     number of k points=    60  Methfessel-Paxton smearing, width (Ry)=  0.0100
                       cart. coord. in units 2pi/alat
        k(    1) = (   0.0000000   0.0000000   0.0000000), wk =   0.0020576
        k(    2) = (   0.0000000   0.0000000   0.1203208), wk =   0.0041152
        k(    3) = (   0.0000000   0.0000000   0.2406417), wk =   0.0041152
        k(    4) = (   0.0000000   0.0000000  -0.3609625), wk =   0.0020576
        k(    5) = (   0.0000000   0.1111111   0.0000000), wk =   0.0082305
        k(    6) = (   0.0000000   0.1111111   0.1203208), wk =   0.0164609
        k(    7) = (   0.0000000   0.1111111   0.2406417), wk =   0.0164609
        k(    8) = (   0.0000000   0.1111111  -0.3609625), wk =   0.0082305
        k(    9) = (   0.0000000   0.2222222   0.0000000), wk =   0.0082305
        k(   10) = (   0.0000000   0.2222222   0.1203208), wk =   0.0164609
        k(   11) = (   0.0000000   0.2222222   0.2406417), wk =   0.0164609
        k(   12) = (   0.0000000   0.2222222  -0.3609625), wk =   0.0082305
        k(   13) = (   0.0000000   0.3333333   0.0000000), wk =   0.0082305
        k(   14) = (   0.0000000   0.3333333   0.1203208), wk =   0.0164609
        k(   15) = (   0.0000000   0.3333333   0.2406417), wk =   0.0164609
        k(   16) = (   0.0000000   0.3333333  -0.3609625), wk =   0.0082305
        k(   17) = (   0.0000000   0.4444444   0.0000000), wk =   0.0082305
        k(   18) = (   0.0000000   0.4444444   0.1203208), wk =   0.0164609
        k(   19) = (   0.0000000   0.4444444   0.2406417), wk =   0.0164609
        k(   20) = (   0.0000000   0.4444444  -0.3609625), wk =   0.0082305
        k(   21) = (   0.1111111   0.1111111   0.0000000), wk =   0.0082305
        k(   22) = (   0.1111111   0.1111111   0.1203208), wk =   0.0164609
        k(   23) = (   0.1111111   0.1111111   0.2406417), wk =   0.0164609
        k(   24) = (   0.1111111   0.1111111  -0.3609625), wk =   0.0082305
        k(   25) = (   0.1111111   0.2222222   0.0000000), wk =   0.0164609
        k(   26) = (   0.1111111   0.2222222   0.1203208), wk =   0.0329218
        k(   27) = (   0.1111111   0.2222222   0.2406417), wk =   0.0329218
        k(   28) = (   0.1111111   0.2222222  -0.3609625), wk =   0.0164609
        k(   29) = (   0.1111111   0.3333333   0.0000000), wk =   0.0164609
        k(   30) = (   0.1111111   0.3333333   0.1203208), wk =   0.0329218
        k(   31) = (   0.1111111   0.3333333   0.2406417), wk =   0.0329218
        k(   32) = (   0.1111111   0.3333333  -0.3609625), wk =   0.0164609
        k(   33) = (   0.1111111   0.4444444   0.0000000), wk =   0.0164609
        k(   34) = (   0.1111111   0.4444444   0.1203208), wk =   0.0329218
        k(   35) = (   0.1111111   0.4444444   0.2406417), wk =   0.0329218
        k(   36) = (   0.1111111   0.4444444  -0.3609625), wk =   0.0164609
        k(   37) = (   0.2222222   0.2222222   0.0000000), wk =   0.0082305
        k(   38) = (   0.2222222   0.2222222   0.1203208), wk =   0.0164609
        k(   39) = (   0.2222222   0.2222222   0.2406417), wk =   0.0164609
        k(   40) = (   0.2222222   0.2222222  -0.3609625), wk =   0.0082305
        k(   41) = (   0.2222222   0.3333333   0.0000000), wk =   0.0164609
        k(   42) = (   0.2222222   0.3333333   0.1203208), wk =   0.0329218
        k(   43) = (   0.2222222   0.3333333   0.2406417), wk =   0.0329218
        k(   44) = (   0.2222222   0.3333333  -0.3609625), wk =   0.0164609
        k(   45) = (   0.2222222   0.4444444   0.0000000), wk =   0.0164609
        k(   46) = (   0.2222222   0.4444444   0.1203208), wk =   0.0329218
        k(   47) = (   0.2222222   0.4444444   0.2406417), wk =   0.0329218
        k(   48) = (   0.2222222   0.4444444  -0.3609625), wk =   0.0164609
        k(   49) = (   0.3333333   0.3333333   0.0000000), wk =   0.0082305
        k(   50) = (   0.3333333   0.3333333   0.1203208), wk =   0.0164609
        k(   51) = (   0.3333333   0.3333333   0.2406417), wk =   0.0164609
        k(   52) = (   0.3333333   0.3333333  -0.3609625), wk =   0.0082305
        k(   53) = (   0.3333333   0.4444444   0.0000000), wk =   0.0164609
        k(   54) = (   0.3333333   0.4444444   0.1203208), wk =   0.0329218
        k(   55) = (   0.3333333   0.4444444   0.2406417), wk =   0.0329218
        k(   56) = (   0.3333333   0.4444444  -0.3609625), wk =   0.0164609
        k(   57) = (   0.4444444   0.4444444   0.0000000), wk =   0.0082305
        k(   58) = (   0.4444444   0.4444444   0.1203208), wk =   0.0164609
        k(   59) = (   0.4444444   0.4444444   0.2406417), wk =   0.0164609
        k(   60) = (   0.4444444   0.4444444  -0.3609625), wk =   0.0082305

                       cryst. coord.
        k(    1) = (   0.0000000   0.0000000   0.0000000), wk =   0.0020576
        k(    2) = (   0.0000000   0.0000000   0.1666667), wk =   0.0041152
        k(    3) = (   0.0000000   0.0000000   0.3333333), wk =   0.0041152
        k(    4) = (   0.0000000   0.0000000  -0.5000000), wk =   0.0020576
        k(    5) = (   0.0000000   0.1111111   0.0000000), wk =   0.0082305
        k(    6) = (   0.0000000   0.1111111   0.1666667), wk =   0.0164609
        k(    7) = (   0.0000000   0.1111111   0.3333333), wk =   0.0164609
        k(    8) = (   0.0000000   0.1111111  -0.5000000), wk =   0.0082305
        k(    9) = (   0.0000000   0.2222222   0.0000000), wk =   0.0082305
        k(   10) = (   0.0000000   0.2222222   0.1666667), wk =   0.0164609
        k(   11) = (   0.0000000   0.2222222   0.3333333), wk =   0.0164609
        k(   12) = (   0.0000000   0.2222222  -0.5000000), wk =   0.0082305
        k(   13) = (   0.0000000   0.3333333   0.0000000), wk =   0.0082305
        k(   14) = (   0.0000000   0.3333333   0.1666667), wk =   0.0164609
        k(   15) = (   0.0000000   0.3333333   0.3333333), wk =   0.0164609
        k(   16) = (   0.0000000   0.3333333  -0.5000000), wk =   0.0082305
        k(   17) = (   0.0000000   0.4444444   0.0000000), wk =   0.0082305
        k(   18) = (   0.0000000   0.4444444   0.1666667), wk =   0.0164609
        k(   19) = (   0.0000000   0.4444444   0.3333333), wk =   0.0164609
        k(   20) = (   0.0000000   0.4444444  -0.5000000), wk =   0.0082305
        k(   21) = (   0.1111111   0.1111111   0.0000000), wk =   0.0082305
        k(   22) = (   0.1111111   0.1111111   0.1666667), wk =   0.0164609
        k(   23) = (   0.1111111   0.1111111   0.3333333), wk =   0.0164609
        k(   24) = (   0.1111111   0.1111111  -0.5000000), wk =   0.0082305
        k(   25) = (   0.1111111   0.2222222   0.0000000), wk =   0.0164609
        k(   26) = (   0.1111111   0.2222222   0.1666667), wk =   0.0329218
        k(   27) = (   0.1111111   0.2222222   0.3333333), wk =   0.0329218
        k(   28) = (   0.1111111   0.2222222  -0.5000000), wk =   0.0164609
        k(   29) = (   0.1111111   0.3333333   0.0000000), wk =   0.0164609
        k(   30) = (   0.1111111   0.3333333   0.1666667), wk =   0.0329218
        k(   31) = (   0.1111111   0.3333333   0.3333333), wk =   0.0329218
        k(   32) = (   0.1111111   0.3333333  -0.5000000), wk =   0.0164609
        k(   33) = (   0.1111111   0.4444444   0.0000000), wk =   0.0164609
        k(   34) = (   0.1111111   0.4444444   0.1666667), wk =   0.0329218
        k(   35) = (   0.1111111   0.4444444   0.3333333), wk =   0.0329218
        k(   36) = (   0.1111111   0.4444444  -0.5000000), wk =   0.0164609
        k(   37) = (   0.2222222   0.2222222   0.0000000), wk =   0.0082305
        k(   38) = (   0.2222222   0.2222222   0.1666667), wk =   0.0164609
        k(   39) = (   0.2222222   0.2222222   0.3333333), wk =   0.0164609
        k(   40) = (   0.2222222   0.2222222  -0.5000000), wk =   0.0082305
        k(   41) = (   0.2222222   0.3333333   0.0000000), wk =   0.0164609
        k(   42) = (   0.2222222   0.3333333   0.1666667), wk =   0.0329218
        k(   43) = (   0.2222222   0.3333333   0.3333333), wk =   0.0329218
        k(   44) = (   0.2222222   0.3333333  -0.5000000), wk =   0.0164609
        k(   45) = (   0.2222222   0.4444444   0.0000000), wk =   0.0164609
        k(   46) = (   0.2222222   0.4444444   0.1666667), wk =   0.0329218
        k(   47) = (   0.2222222   0.4444444   0.3333333), wk =   0.0329218
        k(   48) = (   0.2222222   0.4444444  -0.5000000), wk =   0.0164609
        k(   49) = (   0.3333333   0.3333333   0.0000000), wk =   0.0082305
        k(   50) = (   0.3333333   0.3333333   0.1666667), wk =   0.0164609
        k(   51) = (   0.3333333   0.3333333   0.3333333), wk =   0.0164609
        k(   52) = (   0.3333333   0.3333333  -0.5000000), wk =   0.0082305
        k(   53) = (   0.3333333   0.4444444   0.0000000), wk =   0.0164609
        k(   54) = (   0.3333333   0.4444444   0.1666667), wk =   0.0329218
        k(   55) = (   0.3333333   0.4444444   0.3333333), wk =   0.0329218
        k(   56) = (   0.3333333   0.4444444  -0.5000000), wk =   0.0164609
        k(   57) = (   0.4444444   0.4444444   0.0000000), wk =   0.0082305
        k(   58) = (   0.4444444   0.4444444   0.1666667), wk =   0.0164609
        k(   59) = (   0.4444444   0.4444444   0.3333333), wk =   0.0164609
        k(   60) = (   0.4444444   0.4444444  -0.5000000), wk =   0.0082305

     Dense  grid:    70151 G-vectors     FFT dimensions: (  45,  45,  64)

     Smooth grid:    13173 G-vectors     FFT dimensions: (  27,  27,  40)

     Dynamical RAM for                 wfc:       0.22 MB

     Dynamical RAM for     wfc (w. buffer):      13.50 MB

     Dynamical RAM for           str. fact:       0.10 MB

     Dynamical RAM for           local pot:       0.00 MB

     Dynamical RAM for          nlocal pot:       0.04 MB

     Dynamical RAM for                qrad:       4.49 MB

     Dynamical RAM for          rho,v,vnew:       1.14 MB

     Dynamical RAM for           G-vectors:       0.19 MB

     Dynamical RAM for          h,s,v(r/c):       1.76 MB

     Dynamical RAM for          <psi|beta>:       0.11 MB

     Dynamical RAM for                 psi:       0.44 MB

     Dynamical RAM for                hpsi:       0.44 MB

     Dynamical RAM for                spsi:       0.44 MB

     Dynamical RAM for      wfcinit/wfcrot:       0.55 MB

     Dynamical RAM for           addusdens:       9.25 MB

     Estimated static dynamical RAM per process >      19.97 MB

     Estimated max dynamical RAM per process >      29.21 MB

     Estimated total dynamical RAM >     642.70 MB

     Check: negative core charge=   -0.000005
     Generating pointlists ...
     new r_m :   0.4083 (alat units)  2.1049 (a.u.) for type    1
     new r_m :   0.4083 (alat units)  2.1049 (a.u.) for type    2
     Message from routine read_rhog:
     some spin components not found
 
 -----------
Spin angles Theta, Phi (degree) =   0.0000  0.0000
 -----------

     The potential is recalculated from file :
     ./work/pwscf.save/charge-density

     Starting wfcs are   44 randomized atomic wfcs +   54 random wfcs

     Band Structure Calculation
     Davidson diagonalization with overlap

     Computing kpt #:     1  of    60
     total cpu time spent up to now is        1.2 secs

     Computing kpt #:     2  of    60
     total cpu time spent up to now is        2.0 secs

     Computing kpt #:     3  of    60
     total cpu time spent up to now is        2.9 secs

     Computing kpt #:     4  of    60
     total cpu time spent up to now is        3.7 secs

     Computing kpt #:     5  of    60
     total cpu time spent up to now is        4.5 secs

     Computing kpt #:     6  of    60
     total cpu time spent up to now is        5.3 secs

     Computing kpt #:     7  of    60
     total cpu time spent up to now is        6.1 secs

     Computing kpt #:     8  of    60
     total cpu time spent up to now is        7.0 secs

     Computing kpt #:     9  of    60
     total cpu time spent up to now is        7.8 secs

     Computing kpt #:    10  of    60
     total cpu time spent up to now is        8.6 secs

     Computing kpt #:    11  of    60
     total cpu time spent up to now is        9.4 secs

     Computing kpt #:    12  of    60
     total cpu time spent up to now is       10.2 secs

     Computing kpt #:    13  of    60
     total cpu time spent up to now is       11.1 secs

     Computing kpt #:    14  of    60
     total cpu time spent up to now is       12.0 secs

     Computing kpt #:    15  of    60
     total cpu time spent up to now is       12.8 secs

     Computing kpt #:    16  of    60
     total cpu time spent up to now is       13.8 secs

     Computing kpt #:    17  of    60
     total cpu time spent up to now is       14.6 secs

     Computing kpt #:    18  of    60
     total cpu time spent up to now is       15.5 secs

     Computing kpt #:    19  of    60
     total cpu time spent up to now is       16.3 secs

     Computing kpt #:    20  of    60
     total cpu time spent up to now is       17.2 secs

     Computing kpt #:    21  of    60
     total cpu time spent up to now is       18.1 secs

     Computing kpt #:    22  of    60
     total cpu time spent up to now is       18.9 secs

     Computing kpt #:    23  of    60
     total cpu time spent up to now is       19.7 secs

     Computing kpt #:    24  of    60
     total cpu time spent up to now is       20.6 secs

     Computing kpt #:    25  of    60
     total cpu time spent up to now is       21.6 secs

     Computing kpt #:    26  of    60
     total cpu time spent up to now is       22.4 secs

     Computing kpt #:    27  of    60
     total cpu time spent up to now is       23.2 secs

     Computing kpt #:    28  of    60
     total cpu time spent up to now is       24.1 secs

     Computing kpt #:    29  of    60
     total cpu time spent up to now is       25.0 secs

     Computing kpt #:    30  of    60
     total cpu time spent up to now is       25.9 secs

     Computing kpt #:    31  of    60
     total cpu time spent up to now is       26.7 secs

     Computing kpt #:    32  of    60
     total cpu time spent up to now is       27.6 secs

     Computing kpt #:    33  of    60
     total cpu time spent up to now is       28.4 secs

     Computing kpt #:    34  of    60
     total cpu time spent up to now is       29.4 secs

     Computing kpt #:    35  of    60
     total cpu time spent up to now is       30.2 secs

     Computing kpt #:    36  of    60
     total cpu time spent up to now is       31.1 secs

     Computing kpt #:    37  of    60
     total cpu time spent up to now is       32.0 secs

     Computing kpt #:    38  of    60
     total cpu time spent up to now is       32.9 secs

     Computing kpt #:    39  of    60
     total cpu time spent up to now is       33.8 secs

     Computing kpt #:    40  of    60
     total cpu time spent up to now is       34.8 secs

     Computing kpt #:    41  of    60
     total cpu time spent up to now is       35.6 secs

     Computing kpt #:    42  of    60
     total cpu time spent up to now is       36.4 secs

     Computing kpt #:    43  of    60
     total cpu time spent up to now is       37.4 secs

     Computing kpt #:    44  of    60
     total cpu time spent up to now is       38.3 secs

     Computing kpt #:    45  of    60
     total cpu time spent up to now is       39.1 secs

     Computing kpt #:    46  of    60
     total cpu time spent up to now is       40.1 secs

     Computing kpt #:    47  of    60
     total cpu time spent up to now is       41.0 secs

     Computing kpt #:    48  of    60
     total cpu time spent up to now is       41.8 secs

     Computing kpt #:    49  of    60
     total cpu time spent up to now is       42.8 secs

     Computing kpt #:    50  of    60
     total cpu time spent up to now is       43.8 secs

     Computing kpt #:    51  of    60
     total cpu time spent up to now is       44.7 secs

     Computing kpt #:    52  of    60
     total cpu time spent up to now is       45.6 secs

     Computing kpt #:    53  of    60
     total cpu time spent up to now is       46.5 secs

     Computing kpt #:    54  of    60
     total cpu time spent up to now is       47.5 secs

     Computing kpt #:    55  of    60
     total cpu time spent up to now is       48.5 secs

     Computing kpt #:    56  of    60
     total cpu time spent up to now is       49.4 secs

     Computing kpt #:    57  of    60
     total cpu time spent up to now is       50.4 secs

     Computing kpt #:    58  of    60
     total cpu time spent up to now is       51.3 secs

     Computing kpt #:    59  of    60
     total cpu time spent up to now is       52.2 secs

     Computing kpt #:    60  of    60
     total cpu time spent up to now is       53.0 secs

     ethr =  3.85E-11,  avg # of iterations = 33.4

     total cpu time spent up to now is       53.0 secs

     End of band structure calculation

------
 eband, Ef (eV) =   -110.813482662613        16.9728126683877     
------


          k = 0.0000 0.0000 0.0000 (  1651 PWs)   bands (ev):

   -71.9907 -68.4055 -38.1883 -37.8986 -37.8986 -34.5553 -34.4259 -34.4259
     7.4806   7.6066  10.7217  10.9067  11.2911  11.2981  13.5900  13.5900
    14.0259  14.6930  14.6930  14.8750  14.9845  16.1587  16.2696  16.4394
    16.5259  16.5259  17.5337  18.6692  18.6692  18.7171  19.0509  19.2282
    26.2089  27.0684  28.9181  28.9181  29.2055  29.2055  34.9974  35.1934
    35.6216  36.2996  36.3739  36.9319  39.4052  39.4052  39.5171  39.5171
    39.8418  40.0711  43.8328  44.1257  45.7007  45.7007  46.2987  46.2987
    48.0940  48.2115  51.3206  51.3206  52.0144  52.0144  52.1849  52.2560
    52.3463  53.0131  53.8527  54.8103  56.4724  57.0526  57.5686  57.6961
    59.7607  59.7607  59.8900  59.8900  60.2543  60.2543  60.4352  60.4352
    64.7699  64.8520  67.4283  68.0488  68.1285  68.1754  68.2812  68.2902
    68.4269  68.4269  69.0092  69.0092  70.6011  71.0413  77.1848  77.1848
    77.7807  77.7807

     occupation numbers 
     1.0000   1.0000   1.0000   1.0000   1.0000   1.0000   1.0000   1.0000
     1.0000   1.0000   1.0000   1.0000   1.0000   1.0000   1.0000   1.0000
     1.0000   1.0000   1.0000   1.0000   1.0000   1.0000   1.0000   1.0000
     1.0000   1.0000  -0.0000  -0.0000  -0.0000  -0.0000  -0.0000  -0.0000
    -0.0000  -0.0000  -0.0000  -0.0000  -0.0000  -0.0000  -0.0000  -0.0000
    -0.0000  -0.0000  -0.0000  -0.0000  -0.0000  -0.0000  -0.0000  -0.0000
    -0.0000  -0.0000  -0.0000  -0.0000  -0.0000  -0.0000  -0.0000  -0.0000
    -0.0000  -0.0000  -0.0000  -0.0000  -0.0000  -0.0000  -0.0000  -0.0000
    -0.0000  -0.0000  -0.0000  -0.0000  -0.0000  -0.0000  -0.0000  -0.0000
    -0.0000  -0.0000  -0.0000  -0.0000  -0.0000  -0.0000  -0.0000  -0.0000
    -0.0000  -0.0000  -0.0000  -0.0000  -0.0000  -0.0000  -0.0000  -0.0000
    -0.0000  -0.0000  -0.0000  -0.0000  -0.0000  -0.0000  -0.0000  -0.0000
    -0.0000  -0.0000

          k = 0.0000 0.0000 0.1203 (  1662 PWs)   bands (ev):

   -71.9908 -68.4055 -38.1896 -37.8987 -37.8987 -34.5568 -34.4260 -34.4260
     7.8093   7.9308  10.8566  10.9984  11.3661  11.3979  13.7267  13.7267
    13.8900  14.7823  14.7823  14.8279  14.9249  16.0258  16.2333  16.2333
    16.3070  16.3804  17.1735  17.5767  18.0908  18.3853  18.3853  18.6679
    28.1255  28.8645  29.5894  29.5894  29.9182  29.9182  34.1600  34.4564
    36.2244  36.7776  37.0736  37.2698  38.4731  38.5630  38.6490  38.6490
    38.9052  38.9052  45.5017  45.5017  45.9029  45.9029  46.3092  46.3110
    48.2363  48.3619  49.3362  49.8660  51.6474  52.0563  52.8683  52.8683
    53.5978  53.5978  54.7564  55.4376  55.4419  55.4419  55.4564  55.4564
    55.7767  56.2214  60.4540  60.4851  60.5094  60.7871  64.9609  64.9609
    65.0430  65.0430  66.9960  66.9960  67.6009  67.6009  67.9222  68.1783
    69.5145  69.9259  70.0672  70.6043  73.2953  73.3205  77.3861  77.3861
    77.9414  77.9414

     occupation numbers 
     1.0000   1.0000   1.0000   1.0000   1.0000   1.0000   1.0000   1.0000
     1.0000   1.0000   1.0000   1.0000   1.0000   1.0000   1.0000   1.0000
     1.0000   1.0000   1.0000   1.0000   1.0000   1.0000   1.0000   1.0000
     1.0000   1.0000  -0.0288  -0.0000  -0.0000  -0.0000  -0.0000  -0.0000
    -0.0000  -0.0000  -0.0000  -0.0000  -0.0000  -0.0000  -0.0000  -0.0000
    -0.0000  -0.0000  -0.0000  -0.0000  -0.0000  -0.0000  -0.0000  -0.0000
    -0.0000  -0.0000  -0.0000  -0.0000  -0.0000  -0.0000  -0.0000  -0.0000
    -0.0000  -0.0000  -0.0000  -0.0000  -0.0000  -0.0000  -0.0000  -0.0000
    -0.0000  -0.0000  -0.0000  -0.0000  -0.0000  -0.0000  -0.0000  -0.0000
    -0.0000  -0.0000  -0.0000  -0.0000  -0.0000  -0.0000  -0.0000  -0.0000
    -0.0000  -0.0000  -0.0000  -0.0000  -0.0000  -0.0000  -0.0000  -0.0000
    -0.0000  -0.0000  -0.0000  -0.0000  -0.0000  -0.0000  -0.0000  -0.0000
    -0.0000  -0.0000

          k = 0.0000 0.0000 0.2406 (  1650 PWs)   bands (ev):

   -71.9906 -68.4054 -38.1908 -37.8987 -37.8987 -34.5585 -34.4260 -34.4260
     8.6615   8.7613  11.1339  11.2107  11.5130  11.6017  13.5903  14.1268
    14.1268  14.4601  14.9974  14.9974  15.0389  15.2992  15.4112  15.5453
    15.5453  15.7519  16.2483  16.3865  17.3634  17.8199  17.8199  18.5648
    31.3717  31.3717  31.5077  31.7633  31.7633  32.0949  33.4475  33.9557
    36.1813  36.5518  36.5518  36.7171  37.0097  37.0097  37.2436  37.3560
    38.7092  38.7116  43.6942  44.3568  46.2069  46.2069  46.3408  46.3408
    48.7294  48.8813  50.7963  50.8383  51.0711  51.4957  51.4957  51.5455
    51.5455  51.6719  55.8865  56.0396  56.0396  56.0668  56.0761  56.1752
    56.1807  56.5882  56.7673  56.7673  62.6437  62.9279  63.5622  63.5622
    64.2439  64.2439  66.9990  67.3003  68.7584  69.5091  69.8382  69.8382
    70.0147  70.0147  73.8987  74.4545  74.8822  74.9939  77.4264  77.4264
    77.4525  77.7368

     occupation numbers 
     1.0000   1.0000   1.0000   1.0000   1.0000   1.0000   1.0000   1.0000
     1.0000   1.0000   1.0000   1.0000   1.0000   1.0000   1.0000   1.0000
     1.0000   1.0000   1.0000   1.0000   1.0000   1.0000   1.0000   1.0000
     1.0000   1.0000   1.0000   1.0000  -0.0002  -0.0000  -0.0000  -0.0000
    -0.0000  -0.0000  -0.0000  -0.0000  -0.0000  -0.0000  -0.0000  -0.0000
    -0.0000  -0.0000  -0.0000  -0.0000  -0.0000  -0.0000  -0.0000  -0.0000
    -0.0000  -0.0000  -0.0000  -0.0000  -0.0000  -0.0000  -0.0000  -0.0000
    -0.0000  -0.0000  -0.0000  -0.0000  -0.0000  -0.0000  -0.0000  -0.0000
    -0.0000  -0.0000  -0.0000  -0.0000  -0.0000  -0.0000  -0.0000  -0.0000
    -0.0000  -0.0000  -0.0000  -0.0000  -0.0000  -0.0000  -0.0000  -0.0000
    -0.0000  -0.0000  -0.0000  -0.0000  -0.0000  -0.0000  -0.0000  -0.0000
    -0.0000  -0.0000  -0.0000  -0.0000  -0.0000  -0.0000  -0.0000  -0.0000
    -0.0000  -0.0000

          k = 0.0000 0.0000-0.3610 (  1666 PWs)   bands (ev):

   -71.9907 -68.4054 -38.1925 -37.8987 -37.8987 -34.5604 -34.4260 -34.4260
     9.2984   9.3631  11.2274  11.3384  11.5928  11.6591  13.4194  14.1460
    14.3067  14.3752  14.6611  14.6611  14.8771  14.8771  15.1063  15.1334
    15.1334  15.6099  16.1718  16.4291  17.1740  17.5244  17.5244  18.5104
    33.0119  33.2161  33.4580  33.4687  33.4687  33.7549  33.7549  33.7921
    34.2758  34.2758  34.9259  34.9259  36.9088  36.9850  37.8345  38.5730
    39.3925  39.4611  39.8498  40.4347  47.6863  47.6863  47.7569  47.7569
    48.8959  48.8959  49.0774  49.0774  49.2528  49.4360  50.8684  51.5275
    52.7839  53.2134  54.0097  54.0181  56.1209  56.2810  56.8911  57.1790
    58.9865  58.9865  59.6326  59.6326  60.5957  60.5957  61.3902  61.3902
    63.6014  63.8284  64.8688  65.3031  67.9734  68.8420  72.2402  72.2402
    72.6044  72.6044  75.1414  75.3632  76.9235  76.9863  76.9863  77.0336
    77.0336  77.1372

     occupation numbers 
     1.0000   1.0000   1.0000   1.0000   1.0000   1.0000   1.0000   1.0000
     1.0000   1.0000   1.0000   1.0000   1.0000   1.0000   1.0000   1.0000
     1.0000   1.0000   1.0000   1.0000   1.0000   1.0000   1.0000   1.0000
     1.0000   1.0000   1.0000   1.0000  -0.0286  -0.0000  -0.0000  -0.0000
    -0.0000  -0.0000  -0.0000  -0.0000  -0.0000  -0.0000  -0.0000  -0.0000
    -0.0000  -0.0000  -0.0000  -0.0000  -0.0000  -0.0000  -0.0000  -0.0000
    -0.0000  -0.0000  -0.0000  -0.0000  -0.0000  -0.0000  -0.0000  -0.0000
    -0.0000  -0.0000  -0.0000  -0.0000  -0.0000  -0.0000  -0.0000  -0.0000
    -0.0000  -0.0000  -0.0000  -0.0000  -0.0000  -0.0000  -0.0000  -0.0000
    -0.0000  -0.0000  -0.0000  -0.0000  -0.0000  -0.0000  -0.0000  -0.0000
    -0.0000  -0.0000  -0.0000  -0.0000  -0.0000  -0.0000  -0.0000  -0.0000
    -0.0000  -0.0000  -0.0000  -0.0000  -0.0000  -0.0000  -0.0000  -0.0000
    -0.0000  -0.0000

          k = 0.0000 0.1111 0.0000 (  1645 PWs)   bands (ev):

   -71.9897 -68.4043 -38.1877 -37.9092 -37.8976 -34.5545 -34.4385 -34.4248
     7.7963   7.9242  10.8883  11.1260  11.4074  11.5786  13.4618  13.6791
    14.1071  14.3781  14.7793  14.8031  14.9929  15.6811  16.0497  16.1681
    16.2378  16.4479  17.5391  17.5477  18.5472  18.5903  20.1920  20.8149
    25.9854  26.7157  27.3793  27.8787  29.4815  29.8118  35.2271  35.2943
    35.3514  35.8460  38.2012  38.3478  38.3687  38.8420  39.1888  39.5138
    39.9809  40.0966  44.8515  44.8576  45.4124  46.0034  46.0730  46.4826
    47.5541  47.5686  48.6927  49.5020  51.4587  51.6380  51.7668  52.0883
    53.4645  54.1624  54.8005  54.9220  56.4317  56.8920  57.2231  57.4152
    59.4669  59.6588  60.2731  60.5013  61.3209  61.4104  62.2613  62.2729
    64.5408  64.7731  65.8740  65.9327  66.9612  67.5047  68.4443  69.1107
    69.8823  69.8858  72.1000  72.5691  72.5950  72.9906  74.6831  75.1565
    76.5403  77.1919

     occupation numbers 
     1.0000   1.0000   1.0000   1.0000   1.0000   1.0000   1.0000   1.0000
     1.0000   1.0000   1.0000   1.0000   1.0000   1.0000   1.0000   1.0000
     1.0000   1.0000   1.0000   1.0000   1.0000   1.0000   1.0000   1.0000
     1.0000   1.0000  -0.0000  -0.0000  -0.0000  -0.0000  -0.0000  -0.0000
    -0.0000  -0.0000  -0.0000  -0.0000  -0.0000  -0.0000  -0.0000  -0.0000
    -0.0000  -0.0000  -0.0000  -0.0000  -0.0000  -0.0000  -0.0000  -0.0000
    -0.0000  -0.0000  -0.0000  -0.0000  -0.0000  -0.0000  -0.0000  -0.0000
    -0.0000  -0.0000  -0.0000  -0.0000  -0.0000  -0.0000  -0.0000  -0.0000
    -0.0000  -0.0000  -0.0000  -0.0000  -0.0000  -0.0000  -0.0000  -0.0000
    -0.0000  -0.0000  -0.0000  -0.0000  -0.0000  -0.0000  -0.0000  -0.0000
    -0.0000  -0.0000  -0.0000  -0.0000  -0.0000  -0.0000  -0.0000  -0.0000
    -0.0000  -0.0000  -0.0000  -0.0000  -0.0000  -0.0000  -0.0000  -0.0000
    -0.0000  -0.0000

          k = 0.0000 0.1111 0.1203 (  1647 PWs)   bands (ev):

   -71.9897 -68.4043 -38.1885 -37.9092 -37.8976 -34.5555 -34.4386 -34.4248
     8.1165   8.2422  11.0114  11.2262  11.4844  11.6713  13.5165  13.7713
    14.0482  14.3863  14.8376  14.8474  14.8784  15.3056  15.8917  16.0711
    16.1577  16.4311  16.8789  17.5089  18.2202  18.6858  18.7169  19.6930
    27.3920  27.8839  28.5397  29.1917  30.1081  30.4660  33.9708  34.3108
    36.3315  36.3953  36.6740  36.9947  38.5775  39.0410  39.1577  39.4308
    40.6307  40.8279  43.5167  43.7557  44.9217  45.3419  46.8038  47.0010
    49.1914  49.1916  49.6445  50.1878  50.2969  51.0326  51.0655  51.3040
    52.7333  52.9698  53.3954  53.9864  57.0397  57.1864  57.3115  57.9973
    58.3002  58.5870  59.8230  60.0325  60.7301  61.0684  64.0466  64.0506
    64.1972  64.4503  66.8128  66.9220  67.2376  67.3834  69.4200  70.0057
    71.1678  71.3896  71.3975  71.9266  73.3792  73.5117  76.1504  76.6522
    77.3290  77.6793

     occupation numbers 
     1.0000   1.0000   1.0000   1.0000   1.0000   1.0000   1.0000   1.0000
     1.0000   1.0000   1.0000   1.0000   1.0000   1.0000   1.0000   1.0000
     1.0000   1.0000   1.0000   1.0000   1.0000   1.0000   1.0000   1.0000
     1.0000   1.0000   0.9564  -0.0000  -0.0000  -0.0000  -0.0000  -0.0000
    -0.0000  -0.0000  -0.0000  -0.0000  -0.0000  -0.0000  -0.0000  -0.0000
    -0.0000  -0.0000  -0.0000  -0.0000  -0.0000  -0.0000  -0.0000  -0.0000
    -0.0000  -0.0000  -0.0000  -0.0000  -0.0000  -0.0000  -0.0000  -0.0000
    -0.0000  -0.0000  -0.0000  -0.0000  -0.0000  -0.0000  -0.0000  -0.0000
    -0.0000  -0.0000  -0.0000  -0.0000  -0.0000  -0.0000  -0.0000  -0.0000
    -0.0000  -0.0000  -0.0000  -0.0000  -0.0000  -0.0000  -0.0000  -0.0000
    -0.0000  -0.0000  -0.0000  -0.0000  -0.0000  -0.0000  -0.0000  -0.0000
    -0.0000  -0.0000  -0.0000  -0.0000  -0.0000  -0.0000  -0.0000  -0.0000
    -0.0000  -0.0000

          k = 0.0000 0.1111 0.2406 (  1657 PWs)   bands (ev):

   -71.9897 -68.4042 -38.1899 -37.9095 -37.8978 -34.5574 -34.4388 -34.4250
     8.9506   9.0625  11.2421  11.4549  11.6317  11.8252  13.4513  14.0535
    14.0623  14.3585  14.3734  14.6949  14.9295  14.9919  15.4812  15.4928
    16.0313  16.0548  16.2703  16.6331  17.3473  17.8874  18.3151  18.5966
    29.1053  29.6088  31.6439  31.8103  32.1996  32.2156  32.6778  33.1395
    35.0131  35.3059  36.9211  37.3864  37.5824  37.8642  38.6947  39.0693
    40.3230  40.3980  43.3757  43.8832  45.4277  45.6586  45.7331  46.0748
    48.0353  48.1728  49.2498  49.4180  50.0707  50.2357  52.8869  52.9370
    53.0802  53.7336  54.2601  54.5006  54.8785  55.2161  56.4707  56.9833
    58.0371  58.2951  59.0216  59.5546  62.5809  62.6529  63.2175  63.2367
    64.5168  64.7913  65.6426  65.9605  68.8298  69.2399  70.5599  70.9069
    71.0899  71.1642  73.2121  73.5990  76.0132  76.2126  76.3377  76.8057
    77.0796  77.2674

     occupation numbers 
     1.0000   1.0000   1.0000   1.0000   1.0000   1.0000   1.0000   1.0000
     1.0000   1.0000   1.0000   1.0000   1.0000   1.0000   1.0000   1.0000
     1.0000   1.0000   1.0000   1.0000   1.0000   1.0000   1.0000   1.0000
     1.0000   1.0000   1.0000   1.0012  -0.0003  -0.0000  -0.0000  -0.0000
    -0.0000  -0.0000  -0.0000  -0.0000  -0.0000  -0.0000  -0.0000  -0.0000
    -0.0000  -0.0000  -0.0000  -0.0000  -0.0000  -0.0000  -0.0000  -0.0000
    -0.0000  -0.0000  -0.0000  -0.0000  -0.0000  -0.0000  -0.0000  -0.0000
    -0.0000  -0.0000  -0.0000  -0.0000  -0.0000  -0.0000  -0.0000  -0.0000
    -0.0000  -0.0000  -0.0000  -0.0000  -0.0000  -0.0000  -0.0000  -0.0000
    -0.0000  -0.0000  -0.0000  -0.0000  -0.0000  -0.0000  -0.0000  -0.0000
    -0.0000  -0.0000  -0.0000  -0.0000  -0.0000  -0.0000  -0.0000  -0.0000
    -0.0000  -0.0000  -0.0000  -0.0000  -0.0000  -0.0000  -0.0000  -0.0000
    -0.0000  -0.0000

          k = 0.0000 0.1111-0.3610 (  1664 PWs)   bands (ev):

   -71.9897 -68.4042 -38.1911 -37.9094 -37.8978 -34.5588 -34.4388 -34.4250
     9.5912   9.6736  11.3008  11.5326  11.6917  11.7967  13.3551  13.8328
    13.9693  14.3357  14.5055  14.5103  14.7183  15.0949  15.1025  15.4312
    15.4714  15.9769  15.9929  16.1342  17.4537  17.6335  17.7862  18.5158
    30.8495  30.9956  31.3474  31.5200  33.1758  33.6122  34.0010  34.2722
    34.4659  35.1350  35.7537  36.2593  37.2737  37.2749  38.4350  38.9507
    40.8105  40.9855  41.1624  41.7325  46.4447  46.6635  46.7554  47.0372
    47.5186  47.6011  47.6852  47.7408  49.7370  49.9313  52.0778  52.1801
    53.4697  53.9637  55.4599  55.4602  55.7757  55.9385  57.1058  57.2242
    58.9493  59.4466  59.7827  60.0428  60.4686  60.8179  60.9029  61.3548
    64.4603  64.7721  67.0002  67.4743  68.3437  69.1272  69.7253  69.9771
    71.2329  71.5479  73.5576  73.6837  77.4386  77.7244  77.8221  77.9470
    78.3925  78.7639

     occupation numbers 
     1.0000   1.0000   1.0000   1.0000   1.0000   1.0000   1.0000   1.0000
     1.0000   1.0000   1.0000   1.0000   1.0000   1.0000   1.0000   1.0000
     1.0000   1.0000   1.0000   1.0000   1.0000   1.0000   1.0000   1.0000
     1.0000   1.0000   1.0000   1.0000  -0.0000  -0.0000  -0.0000  -0.0000
    -0.0000  -0.0000  -0.0000  -0.0000  -0.0000  -0.0000  -0.0000  -0.0000
    -0.0000  -0.0000  -0.0000  -0.0000  -0.0000  -0.0000  -0.0000  -0.0000
    -0.0000  -0.0000  -0.0000  -0.0000  -0.0000  -0.0000  -0.0000  -0.0000
    -0.0000  -0.0000  -0.0000  -0.0000  -0.0000  -0.0000  -0.0000  -0.0000
    -0.0000  -0.0000  -0.0000  -0.0000  -0.0000  -0.0000  -0.0000  -0.0000
    -0.0000  -0.0000  -0.0000  -0.0000  -0.0000  -0.0000  -0.0000  -0.0000
    -0.0000  -0.0000  -0.0000  -0.0000  -0.0000  -0.0000  -0.0000  -0.0000
    -0.0000  -0.0000  -0.0000  -0.0000  -0.0000  -0.0000  -0.0000  -0.0000
    -0.0000  -0.0000

          k = 0.0000 0.2222 0.0000 (  1643 PWs)   bands (ev):

   -71.9872 -68.4014 -38.1857 -37.9366 -37.8953 -34.5520 -34.4709 -34.4221
     8.6605   8.7931  11.2547  11.7221  11.7946  12.3440  13.1024  13.6404
    13.9340  14.1866  14.5611  14.6276  15.0180  15.1815  15.5189  15.5453
    16.2208  16.3476  16.6755  17.6519  18.1808  18.3695  22.2390  22.9506
    23.9161  24.4661  26.5050  27.2676  30.9876  31.4117  33.5225  33.9144
    34.8255  35.0771  37.2804  37.4779  38.7482  38.9290  41.5071  41.5141
    41.6358  41.7110  42.9579  43.3577  44.6914  45.2628  45.4484  46.3039
    47.3335  47.5111  50.5576  50.6250  50.8184  50.9215  51.2693  51.2830
    51.5436  52.0280  56.5286  56.8513  57.1370  57.3483  57.5097  57.8991
    58.4697  58.7897  61.8256  62.2935  62.4162  62.5023  63.8548  63.9351
    64.9655  65.0093  65.9961  66.4889  68.3270  68.5093  70.7388  71.3180
    71.8051  71.9426  72.0084  72.6827  73.7289  73.8676  73.9146  74.3516
    75.4101  76.1293

     occupation numbers 
     1.0000   1.0000   1.0000   1.0000   1.0000   1.0000   1.0000   1.0000
     1.0000   1.0000   1.0000   1.0000   1.0000   1.0000   1.0000   1.0000
     1.0000   1.0000   1.0000   1.0000   1.0000   1.0000   1.0000   1.0000
     1.0000   1.0000   1.0042  -0.0000  -0.0000  -0.0000  -0.0000  -0.0000
    -0.0000  -0.0000  -0.0000  -0.0000  -0.0000  -0.0000  -0.0000  -0.0000
    -0.0000  -0.0000  -0.0000  -0.0000  -0.0000  -0.0000  -0.0000  -0.0000
    -0.0000  -0.0000  -0.0000  -0.0000  -0.0000  -0.0000  -0.0000  -0.0000
    -0.0000  -0.0000  -0.0000  -0.0000  -0.0000  -0.0000  -0.0000  -0.0000
    -0.0000  -0.0000  -0.0000  -0.0000  -0.0000  -0.0000  -0.0000  -0.0000
    -0.0000  -0.0000  -0.0000  -0.0000  -0.0000  -0.0000  -0.0000  -0.0000
    -0.0000  -0.0000  -0.0000  -0.0000  -0.0000  -0.0000  -0.0000  -0.0000
    -0.0000  -0.0000  -0.0000  -0.0000  -0.0000  -0.0000  -0.0000  -0.0000
    -0.0000  -0.0000

          k = 0.0000 0.2222 0.1203 (  1635 PWs)   bands (ev):

   -71.9871 -68.4014 -38.1860 -37.9365 -37.8952 -34.5524 -34.4708 -34.4220
     8.9313   9.0738  11.3241  11.7592  11.9327  12.4689  13.1244  13.5775
    13.8614  14.1423  14.3201  14.7910  14.9585  15.1032  15.3033  15.5389
    16.3032  16.3308  16.3984  17.5676  17.9631  18.5873  20.3499  21.2870
    24.4886  25.0622  28.7546  29.3975  31.5023  31.8774  31.9303  32.3249
    35.9421  36.0000  36.1066  36.3902  40.0240  40.3612  40.5217  40.8582
    42.6310  42.7079  42.7111  43.1718  43.2908  43.7598  45.8333  45.9701
    48.1211  48.6992  48.7269  49.0205  49.9671  50.2192  52.1655  52.4871
    52.8524  52.8651  54.4655  55.0978  57.7121  57.9338  58.5264  58.7688
    58.9873  59.1115  60.9692  61.0235  61.5588  61.5874  62.8997  63.3042
    66.6027  66.7331  67.1226  67.5156  68.4406  68.7220  69.8263  69.9994
    71.8845  72.4784  73.1230  73.1537  73.6704  73.7263  74.2294  74.6137
    76.4779  76.5621

     occupation numbers 
     1.0000   1.0000   1.0000   1.0000   1.0000   1.0000   1.0000   1.0000
     1.0000   1.0000   1.0000   1.0000   1.0000   1.0000   1.0000   1.0000
     1.0000   1.0000   1.0000   1.0000   1.0000   1.0000   1.0000   1.0000
     1.0000   1.0000   1.0000  -0.0000  -0.0000  -0.0000  -0.0000  -0.0000
    -0.0000  -0.0000  -0.0000  -0.0000  -0.0000  -0.0000  -0.0000  -0.0000
    -0.0000  -0.0000  -0.0000  -0.0000  -0.0000  -0.0000  -0.0000  -0.0000
    -0.0000  -0.0000  -0.0000  -0.0000  -0.0000  -0.0000  -0.0000  -0.0000
    -0.0000  -0.0000  -0.0000  -0.0000  -0.0000  -0.0000  -0.0000  -0.0000
    -0.0000  -0.0000  -0.0000  -0.0000  -0.0000  -0.0000  -0.0000  -0.0000
    -0.0000  -0.0000  -0.0000  -0.0000  -0.0000  -0.0000  -0.0000  -0.0000
    -0.0000  -0.0000  -0.0000  -0.0000  -0.0000  -0.0000  -0.0000  -0.0000
    -0.0000  -0.0000  -0.0000  -0.0000  -0.0000  -0.0000  -0.0000  -0.0000
    -0.0000  -0.0000

          k = 0.0000 0.2222 0.2406 (  1645 PWs)   bands (ev):

   -71.9871 -68.4014 -38.1871 -37.9363 -37.8955 -34.5539 -34.4706 -34.4223
     9.6204   9.7902  11.3651  11.7447  12.2702  12.6376  13.1030  13.6507
    13.8691  13.9343  14.0482  14.5276  14.9425  15.0912  15.4112  15.5067
    15.5592  16.3002  16.3201  17.5167  17.7904  17.9777  18.6344  19.2049
    25.9086  26.5111  29.7571  30.3029  32.2082  32.6812  32.9656  33.4145
    35.0568  35.2303  36.8423  36.9823  37.8806  38.3544  40.9176  41.3494
    42.1183  42.4320  43.6743  43.9658  44.0404  44.2905  44.7945  45.0441
    47.3086  47.4292  47.9007  47.9681  50.0047  50.3879  51.8082  52.4954
    52.9730  53.1519  55.2360  55.4959  57.3032  57.5391  58.2299  58.5467
    60.5647  60.7927  61.0982  61.0991  61.8503  62.3693  62.4749  63.0385
    64.2172  64.2724  66.4065  66.7966  69.3065  69.6234  70.7113  71.2727
    71.5557  71.7505  72.8436  73.2248  75.0101  75.3681  76.2385  76.4588
    76.4712  76.7452

     occupation numbers 
     1.0000   1.0000   1.0000   1.0000   1.0000   1.0000   1.0000   1.0000
     1.0000   1.0000   1.0000   1.0000   1.0000   1.0000   1.0000   1.0000
     1.0000   1.0000   1.0000   1.0000   1.0000   1.0000   1.0000   1.0000
     1.0000   1.0000   1.0000  -0.0000  -0.0000  -0.0000  -0.0000  -0.0000
    -0.0000  -0.0000  -0.0000  -0.0000  -0.0000  -0.0000  -0.0000  -0.0000
    -0.0000  -0.0000  -0.0000  -0.0000  -0.0000  -0.0000  -0.0000  -0.0000
    -0.0000  -0.0000  -0.0000  -0.0000  -0.0000  -0.0000  -0.0000  -0.0000
    -0.0000  -0.0000  -0.0000  -0.0000  -0.0000  -0.0000  -0.0000  -0.0000
    -0.0000  -0.0000  -0.0000  -0.0000  -0.0000  -0.0000  -0.0000  -0.0000
    -0.0000  -0.0000  -0.0000  -0.0000  -0.0000  -0.0000  -0.0000  -0.0000
    -0.0000  -0.0000  -0.0000  -0.0000  -0.0000  -0.0000  -0.0000  -0.0000
    -0.0000  -0.0000  -0.0000  -0.0000  -0.0000  -0.0000  -0.0000  -0.0000
    -0.0000  -0.0000

          k = 0.0000 0.2222-0.3610 (  1656 PWs)   bands (ev):

   -71.9872 -68.4014 -38.1877 -37.9364 -37.8957 -34.5547 -34.4707 -34.4224
    10.1500  10.3367  11.2294  11.5815  12.3432  12.5834  13.4387  13.5183
    13.9530  14.0841  14.1183  14.2505  14.6723  15.0209  15.2364  15.7524
    15.8796  16.0801  16.0874  16.2968  17.9078  18.0327  18.1278  18.5384
    27.5826  27.9099  28.0239  28.6752  33.4756  33.7578  34.9678  35.4132
    35.6412  35.6785  36.1917  36.2576  37.1552  37.5749  38.3459  38.8384
    43.5012  43.8349  43.9779  44.2422  44.2901  44.7002  44.8902  45.0659
    46.8679  46.9090  47.8004  47.8197  48.9017  49.0907  50.5104  50.7724
    54.4915  55.0118  56.1006  56.7329  58.3048  58.5715  58.8029  59.0996
    59.8756  60.0646  60.2535  60.3567  60.3630  60.4205  63.0770  63.3964
    65.4250  65.7240  67.2960  67.4091  69.0381  69.3290  69.6203  69.6820
    70.6260  70.6372  70.8406  71.1390  75.1318  75.5456  77.0160  77.3127
    78.8050  79.1964

     occupation numbers 
     1.0000   1.0000   1.0000   1.0000   1.0000   1.0000   1.0000   1.0000
     1.0000   1.0000   1.0000   1.0000   1.0000   1.0000   1.0000   1.0000
     1.0000   1.0000   1.0000   1.0000   1.0000   1.0000   1.0000   1.0000
     1.0000   1.0000   1.0000   1.0000  -0.0000  -0.0000  -0.0000  -0.0000
    -0.0000  -0.0000  -0.0000  -0.0000  -0.0000  -0.0000  -0.0000  -0.0000
    -0.0000  -0.0000  -0.0000  -0.0000  -0.0000  -0.0000  -0.0000  -0.0000
    -0.0000  -0.0000  -0.0000  -0.0000  -0.0000  -0.0000  -0.0000  -0.0000
    -0.0000  -0.0000  -0.0000  -0.0000  -0.0000  -0.0000  -0.0000  -0.0000
    -0.0000  -0.0000  -0.0000  -0.0000  -0.0000  -0.0000  -0.0000  -0.0000
    -0.0000  -0.0000  -0.0000  -0.0000  -0.0000  -0.0000  -0.0000  -0.0000
    -0.0000  -0.0000  -0.0000  -0.0000  -0.0000  -0.0000  -0.0000  -0.0000
    -0.0000  -0.0000  -0.0000  -0.0000  -0.0000  -0.0000  -0.0000  -0.0000
    -0.0000  -0.0000

          k = 0.0000 0.3333 0.0000 (  1631 PWs)   bands (ev):

   -71.9843 -68.3981 -38.1832 -37.9675 -37.8925 -34.5490 -34.5076 -34.4189
     9.8200   9.9553  11.7660  12.1714  12.5402  12.6172  12.9111  13.2328
    13.8555  13.9913  14.3152  14.4437  14.9156  14.9607  15.3402  15.8528
    15.8706  16.1443  16.2758  17.8347  18.0667  18.0686  21.2980  22.0072
    24.5219  25.2609  26.6168  27.3257  31.3529  31.7265  32.7455  33.1059
    33.3058  33.6215  36.5545  36.8062  38.8988  38.9162  40.0322  40.0356
    41.3654  41.9172  43.9134  44.4666  44.9661  45.4209  47.3561  47.3741
    47.6208  48.0523  50.3033  50.3197  50.4005  50.5275  50.5998  51.0314
    54.7461  54.8228  55.0199  55.3462  56.3073  56.4958  58.7499  58.9316
    59.7908  60.4994  61.4017  61.6350  62.7024  62.9093  65.2500  65.7862
    66.0789  66.6296  67.2108  67.7059  67.7217  68.0239  69.7069  69.7300
    74.4868  74.5730  74.9586  75.0764  75.2508  75.3392  75.4176  75.4592
    75.5572  75.9143

     occupation numbers 
     1.0000   1.0000   1.0000   1.0000   1.0000   1.0000   1.0000   1.0000
     1.0000   1.0000   1.0000   1.0000   1.0000   1.0000   1.0000   1.0000
     1.0000   1.0000   1.0000   1.0000   1.0000   1.0000   1.0000   1.0000
     1.0000   1.0000   1.0000  -0.0000  -0.0000  -0.0000  -0.0000  -0.0000
    -0.0000  -0.0000  -0.0000  -0.0000  -0.0000  -0.0000  -0.0000  -0.0000
    -0.0000  -0.0000  -0.0000  -0.0000  -0.0000  -0.0000  -0.0000  -0.0000
    -0.0000  -0.0000  -0.0000  -0.0000  -0.0000  -0.0000  -0.0000  -0.0000
    -0.0000  -0.0000  -0.0000  -0.0000  -0.0000  -0.0000  -0.0000  -0.0000
    -0.0000  -0.0000  -0.0000  -0.0000  -0.0000  -0.0000  -0.0000  -0.0000
    -0.0000  -0.0000  -0.0000  -0.0000  -0.0000  -0.0000  -0.0000  -0.0000
    -0.0000  -0.0000  -0.0000  -0.0000  -0.0000  -0.0000  -0.0000  -0.0000
    -0.0000  -0.0000  -0.0000  -0.0000  -0.0000  -0.0000  -0.0000  -0.0000
    -0.0000  -0.0000

          k = 0.0000 0.3333 0.1203 (  1640 PWs)   bands (ev):

   -71.9843 -68.3981 -38.1835 -37.9675 -37.8928 -34.5493 -34.5075 -34.4191
     9.9383  10.1232  11.6245  12.0134  12.4791  12.9136  13.0668  13.5829
    13.8872  13.9028  14.0449  14.5295  14.8073  15.0521  15.2916  15.7409
    16.0493  16.0982  16.3593  17.8090  17.9797  18.3543  21.1619  21.8633
    22.5490  23.4497  28.8146  29.4575  29.9154  30.3998  33.4697  33.9749
    34.5800  34.8733  36.1647  36.2593  37.9357  38.2066  40.7414  41.3902
    41.9956  42.0763  42.5330  42.8455  46.2575  46.4309  46.6303  47.0552
    47.0708  47.3840  48.8326  49.0608  49.8050  50.1147  51.8683  52.4669
    55.3161  55.5779  56.3554  56.4268  56.5458  56.8219  57.1355  57.6539
    58.5111  58.5850  62.6060  63.0897  64.0375  64.4022  65.4299  65.4404
    65.8197  66.0253  67.1512  67.6322  68.7659  69.0375  70.4910  70.9373
    72.0407  72.0847  72.6170  72.6836  72.8056  73.2356  74.8910  75.3349
    76.2752  76.4848

     occupation numbers 
     1.0000   1.0000   1.0000   1.0000   1.0000   1.0000   1.0000   1.0000
     1.0000   1.0000   1.0000   1.0000   1.0000   1.0000   1.0000   1.0000
     1.0000   1.0000   1.0000   1.0000   1.0000   1.0000   1.0000   1.0000
     1.0000   1.0000   1.0000  -0.0000  -0.0000  -0.0000  -0.0000  -0.0000
    -0.0000  -0.0000  -0.0000  -0.0000  -0.0000  -0.0000  -0.0000  -0.0000
    -0.0000  -0.0000  -0.0000  -0.0000  -0.0000  -0.0000  -0.0000  -0.0000
    -0.0000  -0.0000  -0.0000  -0.0000  -0.0000  -0.0000  -0.0000  -0.0000
    -0.0000  -0.0000  -0.0000  -0.0000  -0.0000  -0.0000  -0.0000  -0.0000
    -0.0000  -0.0000  -0.0000  -0.0000  -0.0000  -0.0000  -0.0000  -0.0000
    -0.0000  -0.0000  -0.0000  -0.0000  -0.0000  -0.0000  -0.0000  -0.0000
    -0.0000  -0.0000  -0.0000  -0.0000  -0.0000  -0.0000  -0.0000  -0.0000
    -0.0000  -0.0000  -0.0000  -0.0000  -0.0000  -0.0000  -0.0000  -0.0000
    -0.0000  -0.0000

          k = 0.0000 0.3333 0.2406 (  1639 PWs)   bands (ev):

   -71.9843 -68.3981 -38.1841 -37.9670 -37.8927 -34.5502 -34.5069 -34.4190
    10.2169  10.5111  11.1860  11.5707  12.9625  13.5051  13.6644  13.6890
    13.9290  14.0167  14.0456  14.2623  14.6268  15.0669  15.5671  15.6607
    15.7880  16.2850  16.4696  17.8663  18.0920  18.5927  18.6882  19.8597
    23.2114  23.9791  26.9165  27.5898  32.9155  33.2670  34.5079  34.9634
    35.0294  35.0742  35.7724  36.0510  38.7397  39.1894  39.3059  39.7418
    42.2859  42.3689  42.7909  42.8051  44.1929  44.4052  46.1710  46.3634
    47.0396  47.0456  49.1450  49.4179  50.5632  50.9381  51.9073  52.4717
    53.5308  53.9593  55.3901  55.8739  58.2713  58.7034  58.7971  58.8806
    61.2100  61.4993  61.5725  61.6328  63.8003  64.2176  64.6261  65.0896
    65.6322  66.0103  67.7892  68.0077  68.8404  69.2393  69.5145  69.8622
    69.9377  70.2047  71.4197  71.8299  72.1552  72.2075  74.8878  75.1092
    76.7933  77.1337

     occupation numbers 
     1.0000   1.0000   1.0000   1.0000   1.0000   1.0000   1.0000   1.0000
     1.0000   1.0000   1.0000   1.0000   1.0000   1.0000   1.0000   1.0000
     1.0000   1.0000   1.0000   1.0000   1.0000   1.0000   1.0000   1.0000
     1.0000   1.0000   1.0000  -0.0000  -0.0000  -0.0000  -0.0000  -0.0000
    -0.0000  -0.0000  -0.0000  -0.0000  -0.0000  -0.0000  -0.0000  -0.0000
    -0.0000  -0.0000  -0.0000  -0.0000  -0.0000  -0.0000  -0.0000  -0.0000
    -0.0000  -0.0000  -0.0000  -0.0000  -0.0000  -0.0000  -0.0000  -0.0000
    -0.0000  -0.0000  -0.0000  -0.0000  -0.0000  -0.0000  -0.0000  -0.0000
    -0.0000  -0.0000  -0.0000  -0.0000  -0.0000  -0.0000  -0.0000  -0.0000
    -0.0000  -0.0000  -0.0000  -0.0000  -0.0000  -0.0000  -0.0000  -0.0000
    -0.0000  -0.0000  -0.0000  -0.0000  -0.0000  -0.0000  -0.0000  -0.0000
    -0.0000  -0.0000  -0.0000  -0.0000  -0.0000  -0.0000  -0.0000  -0.0000
    -0.0000  -0.0000

          k = 0.0000 0.3333-0.3610 (  1642 PWs)   bands (ev):

   -71.9843 -68.3981 -38.1842 -37.9668 -37.8930 -34.5504 -34.5066 -34.4192
    10.4608  10.8252  10.8577  11.2306  13.3750  13.6777  13.7589  13.7659
    14.0164  14.1548  14.2178  14.5298  14.5776  14.9228  15.3690  16.0587
    16.1958  16.3553  16.4916  16.5155  18.1760  18.3552  18.4840  18.5787
    24.4306  25.0208  25.3464  26.2101  33.8808  33.9309  34.8865  35.0050
    35.5862  36.3278  37.2519  37.4005  37.8205  38.3296  38.3351  38.6714
    41.3281  41.9691  42.4792  43.0150  45.5646  45.6886  45.8335  45.8520
    46.0236  46.2080  47.9222  47.9796  50.5799  50.9432  52.5857  53.0086
    55.0624  55.4648  55.8249  56.6059  57.3413  57.8284  57.8528  58.1662
    62.5555  62.8064  62.8657  63.1258  64.1958  64.5643  64.6837  64.7632
    65.2879  65.4170  66.0372  66.0522  69.0617  69.3271  69.4585  69.6333
    69.7389  70.3299  70.5094  70.6722  71.1031  71.4800  72.7118  73.3017
    80.0266  80.5462

     occupation numbers 
     1.0000   1.0000   1.0000   1.0000   1.0000   1.0000   1.0000   1.0000
     1.0000   1.0000   1.0000   1.0000   1.0000   1.0000   1.0000   1.0000
     1.0000   1.0000   1.0000   1.0000   1.0000   1.0000   1.0000   1.0000
     1.0000   1.0000   1.0000   1.0000  -0.0000  -0.0000  -0.0000  -0.0000
    -0.0000  -0.0000  -0.0000  -0.0000  -0.0000  -0.0000  -0.0000  -0.0000
    -0.0000  -0.0000  -0.0000  -0.0000  -0.0000  -0.0000  -0.0000  -0.0000
    -0.0000  -0.0000  -0.0000  -0.0000  -0.0000  -0.0000  -0.0000  -0.0000
    -0.0000  -0.0000  -0.0000  -0.0000  -0.0000  -0.0000  -0.0000  -0.0000
    -0.0000  -0.0000  -0.0000  -0.0000  -0.0000  -0.0000  -0.0000  -0.0000
    -0.0000  -0.0000  -0.0000  -0.0000  -0.0000  -0.0000  -0.0000  -0.0000
    -0.0000  -0.0000  -0.0000  -0.0000  -0.0000  -0.0000  -0.0000  -0.0000
    -0.0000  -0.0000  -0.0000  -0.0000  -0.0000  -0.0000  -0.0000  -0.0000
    -0.0000  -0.0000

          k = 0.0000 0.4444 0.0000 (  1636 PWs)   bands (ev):

   -71.9824 -68.3960 -38.1815 -37.9878 -37.8913 -34.5469 -34.5316 -34.4173
    10.7689  10.8941  12.2711  12.3622  12.4878  12.6607  12.8051  13.5510
    13.5663  13.6488  14.3541  14.5155  14.6205  14.7279  15.4778  15.6002
    15.8809  16.1699  16.8479  17.6344  17.8186  18.8626  19.3604  20.1548
    26.7342  27.1832  27.4887  27.9092  29.4615  29.7982  30.4346  31.0810
    35.5507  35.5745  35.8377  36.0983  37.7740  37.8536  38.6200  39.3480
    42.0224  42.0830  43.4363  43.9817  44.7416  44.7775  48.0007  48.3193
    49.5347  50.0771  50.1724  50.2633  51.5559  51.8710  53.1511  53.5834
    53.8142  53.8859  55.4551  55.8249  56.0074  56.0490  58.0202  58.0985
    58.7919  59.2892  61.9764  62.1634  63.0053  63.6974  63.7841  63.8474
    67.6849  68.0356  68.3662  68.9802  69.7614  69.7650  70.4886  71.1137
    72.1088  72.5601  73.9344  74.1112  74.5753  74.5902  75.2349  75.3437
    75.3514  75.8384

     occupation numbers 
     1.0000   1.0000   1.0000   1.0000   1.0000   1.0000   1.0000   1.0000
     1.0000   1.0000   1.0000   1.0000   1.0000   1.0000   1.0000   1.0000
     1.0000   1.0000   1.0000   1.0000   1.0000   1.0000   1.0000   1.0000
     1.0000   1.0000   1.0144  -0.0000  -0.0000  -0.0000  -0.0000  -0.0000
    -0.0000  -0.0000  -0.0000  -0.0000  -0.0000  -0.0000  -0.0000  -0.0000
    -0.0000  -0.0000  -0.0000  -0.0000  -0.0000  -0.0000  -0.0000  -0.0000
    -0.0000  -0.0000  -0.0000  -0.0000  -0.0000  -0.0000  -0.0000  -0.0000
    -0.0000  -0.0000  -0.0000  -0.0000  -0.0000  -0.0000  -0.0000  -0.0000
    -0.0000  -0.0000  -0.0000  -0.0000  -0.0000  -0.0000  -0.0000  -0.0000
    -0.0000  -0.0000  -0.0000  -0.0000  -0.0000  -0.0000  -0.0000  -0.0000
    -0.0000  -0.0000  -0.0000  -0.0000  -0.0000  -0.0000  -0.0000  -0.0000
    -0.0000  -0.0000  -0.0000  -0.0000  -0.0000  -0.0000  -0.0000  -0.0000
    -0.0000  -0.0000

          k = 0.0000 0.4444 0.1203 (  1648 PWs)   bands (ev):

   -71.9825 -68.3960 -38.1820 -37.9876 -37.8914 -34.5474 -34.5313 -34.4174
    10.6907  10.9299  11.4906  11.8566  12.7038  12.9630  13.5912  13.7115
    13.9079  13.9135  14.1756  14.3331  14.5002  15.2542  15.3695  15.8143
    15.9738  16.2663  16.7554  17.8481  18.0709  18.7272  19.2719  20.0624
    24.0204  24.8335  26.5596  27.2974  31.0228  31.5157  32.8625  33.2423
    35.5486  35.7713  35.7791  36.3156  36.7183  36.7657  38.3002  38.9646
    42.6521  42.8964  43.4976  43.9607  44.8258  44.8371  46.3599  46.6168
    50.0028  50.2401  50.3355  50.7559  51.3459  51.9634  52.7636  53.0798
    53.9641  54.1368  54.3683  54.7078  56.3913  56.4340  58.8808  59.3706
    59.4362  59.7643  62.3957  62.6666  63.6537  63.7108  66.1026  66.5736
    67.1030  67.5754  68.0878  68.4745  68.6680  69.0621  69.9732  70.4220
    70.8291  71.1260  71.4014  71.8416  73.3867  73.8500  75.5478  75.6023
    76.8111  77.0317

     occupation numbers 
     1.0000   1.0000   1.0000   1.0000   1.0000   1.0000   1.0000   1.0000
     1.0000   1.0000   1.0000   1.0000   1.0000   1.0000   1.0000   1.0000
     1.0000   1.0000   1.0000   1.0000   1.0000   1.0000   1.0000   1.0000
     1.0000   1.0000   1.0232  -0.0000  -0.0000  -0.0000  -0.0000  -0.0000
    -0.0000  -0.0000  -0.0000  -0.0000  -0.0000  -0.0000  -0.0000  -0.0000
    -0.0000  -0.0000  -0.0000  -0.0000  -0.0000  -0.0000  -0.0000  -0.0000
    -0.0000  -0.0000  -0.0000  -0.0000  -0.0000  -0.0000  -0.0000  -0.0000
    -0.0000  -0.0000  -0.0000  -0.0000  -0.0000  -0.0000  -0.0000  -0.0000
    -0.0000  -0.0000  -0.0000  -0.0000  -0.0000  -0.0000  -0.0000  -0.0000
    -0.0000  -0.0000  -0.0000  -0.0000  -0.0000  -0.0000  -0.0000  -0.0000
    -0.0000  -0.0000  -0.0000  -0.0000  -0.0000  -0.0000  -0.0000  -0.0000
    -0.0000  -0.0000  -0.0000  -0.0000  -0.0000  -0.0000  -0.0000  -0.0000
    -0.0000  -0.0000

          k = 0.0000 0.4444 0.2406 (  1641 PWs)   bands (ev):

   -71.9825 -68.3960 -38.1820 -37.9870 -37.8912 -34.5476 -34.5305 -34.4172
    10.5572  10.8569  10.9573  11.2543  13.1383  13.5296  13.6412  13.7506
    13.8225  14.2946  14.7518  14.8504  15.0080  15.4806  15.8193  16.1576
    16.2248  16.4252  16.4725  18.2555  18.3317  18.4500  18.4634  19.4049
    22.1958  23.1403  24.6240  25.4673  33.6193  33.7835  34.4247  34.5626
    35.7426  36.0569  36.0894  36.7081  37.2819  37.6196  38.2379  38.5934
    41.2351  41.8744  42.8113  43.2275  44.4344  44.7711  46.5869  46.6747
    47.2929  47.3799  49.0417  49.3560  52.7056  53.2879  53.7314  54.3956
    54.4969  54.8627  56.6091  56.7168  56.7672  56.9409  57.9073  58.0567
    61.9470  61.9654  62.3204  62.5042  63.5615  63.7615  66.4026  66.5365
    66.9268  66.9297  67.0223  67.3217  68.9413  69.1587  69.6360  69.7540
    70.0349  70.2633  71.3545  71.6908  72.0139  72.4846  73.3543  73.3804
    76.1726  76.3544

     occupation numbers 
     1.0000   1.0000   1.0000   1.0000   1.0000   1.0000   1.0000   1.0000
     1.0000   1.0000   1.0000   1.0000   1.0000   1.0000   1.0000   1.0000
     1.0000   1.0000   1.0000   1.0000   1.0000   1.0000   1.0000   1.0000
     1.0000   1.0000   1.0000  -0.0000  -0.0000  -0.0000  -0.0000  -0.0000
    -0.0000  -0.0000  -0.0000  -0.0000  -0.0000  -0.0000  -0.0000  -0.0000
    -0.0000  -0.0000  -0.0000  -0.0000  -0.0000  -0.0000  -0.0000  -0.0000
    -0.0000  -0.0000  -0.0000  -0.0000  -0.0000  -0.0000  -0.0000  -0.0000
    -0.0000  -0.0000  -0.0000  -0.0000  -0.0000  -0.0000  -0.0000  -0.0000
    -0.0000  -0.0000  -0.0000  -0.0000  -0.0000  -0.0000  -0.0000  -0.0000
    -0.0000  -0.0000  -0.0000  -0.0000  -0.0000  -0.0000  -0.0000  -0.0000
    -0.0000  -0.0000  -0.0000  -0.0000  -0.0000  -0.0000  -0.0000  -0.0000
    -0.0000  -0.0000  -0.0000  -0.0000  -0.0000  -0.0000  -0.0000  -0.0000
    -0.0000  -0.0000

          k = 0.0000 0.4444-0.3610 (  1636 PWs)   bands (ev):

   -71.9825 -68.3960 -38.1822 -37.9866 -37.8911 -34.5477 -34.5301 -34.4170
    10.5539  10.5717  10.9551  11.0372  13.3478  13.3994  13.5818  13.8744
    14.1502  14.2048  14.8562  15.5106  15.9339  16.0570  16.1089  16.2555
    16.3704  16.4827  16.6000  16.6636  18.0726  18.4659  18.5971  18.6126
    21.9976  22.8823  23.7272  24.6893  34.0367  34.0533  34.1770  34.2183
    36.0306  36.7752  37.1923  37.6796  38.8106  38.8352  39.0805  39.3360
    39.9348  40.7449  41.5318  42.1331  44.2275  44.5502  45.1926  45.4826
    46.9997  47.3987  47.9589  48.0255  54.6239  55.0222  55.1363  55.2543
    55.4538  55.9088  56.8380  57.0440  57.4999  57.7329  58.1751  58.2789
    59.9497  60.2955  61.8438  62.2968  63.6610  63.8925  65.2405  65.6204
    65.9315  65.9920  66.2769  66.3815  69.9896  70.0022  70.6633  70.6830
    70.9541  70.9948  71.3562  71.3831  72.2579  72.4727  73.1317  73.6149
    76.7558  76.7917

     occupation numbers 
     1.0000   1.0000   1.0000   1.0000   1.0000   1.0000   1.0000   1.0000
     1.0000   1.0000   1.0000   1.0000   1.0000   1.0000   1.0000   1.0000
     1.0000   1.0000   1.0000   1.0000   1.0000   1.0000   1.0000   1.0000
     1.0000   1.0000   1.0004   1.0030  -0.0000  -0.0000  -0.0000  -0.0000
    -0.0000  -0.0000  -0.0000  -0.0000  -0.0000  -0.0000  -0.0000  -0.0000
    -0.0000  -0.0000  -0.0000  -0.0000  -0.0000  -0.0000  -0.0000  -0.0000
    -0.0000  -0.0000  -0.0000  -0.0000  -0.0000  -0.0000  -0.0000  -0.0000
    -0.0000  -0.0000  -0.0000  -0.0000  -0.0000  -0.0000  -0.0000  -0.0000
    -0.0000  -0.0000  -0.0000  -0.0000  -0.0000  -0.0000  -0.0000  -0.0000
    -0.0000  -0.0000  -0.0000  -0.0000  -0.0000  -0.0000  -0.0000  -0.0000
    -0.0000  -0.0000  -0.0000  -0.0000  -0.0000  -0.0000  -0.0000  -0.0000
    -0.0000  -0.0000  -0.0000  -0.0000  -0.0000  -0.0000  -0.0000  -0.0000
    -0.0000  -0.0000

          k = 0.1111 0.1111 0.0000 (  1647 PWs)   bands (ev):

   -71.9887 -68.4032 -38.1870 -37.9085 -37.9082 -34.5536 -34.4378 -34.4372
     8.1097   8.2406  11.0914  11.2994  11.6717  11.7032  13.2931  13.8139
    14.2118  14.3303  14.5204  14.6583  15.0526  15.0682  15.7852  15.9018
    16.3384  16.4953  17.1554  17.5680  18.3833  18.6730  20.9735  21.5928
    25.9349  26.6809  27.5266  27.9723  28.0171  28.5108  35.5181  35.6093
    36.5644  36.9770  37.2717  37.4216  38.2936  38.7415  39.4882  39.5562
    39.8125  39.8433  45.4450  45.4604  45.7568  46.1409  46.5135  46.6099
    46.6102  47.1367  47.8328  47.8521  50.2847  50.3775  53.8438  54.2230
    54.5615  54.8354  55.0819  55.6977  56.0115  56.1137  56.3130  56.4499
    59.0132  59.1120  59.6879  60.2884  60.6609  60.8104  65.1008  65.3121
    66.0419  66.0487  66.3274  66.3875  66.3983  66.9094  68.6273  68.9219
    69.6567  70.2684  73.0410  73.5953  73.6202  73.9786  74.9886  75.3557
    76.5018  76.9671

     occupation numbers 
     1.0000   1.0000   1.0000   1.0000   1.0000   1.0000   1.0000   1.0000
     1.0000   1.0000   1.0000   1.0000   1.0000   1.0000   1.0000   1.0000
     1.0000   1.0000   1.0000   1.0000   1.0000   1.0000   1.0000   1.0000
     1.0000   1.0000  -0.0337  -0.0000  -0.0000  -0.0000  -0.0000  -0.0000
    -0.0000  -0.0000  -0.0000  -0.0000  -0.0000  -0.0000  -0.0000  -0.0000
    -0.0000  -0.0000  -0.0000  -0.0000  -0.0000  -0.0000  -0.0000  -0.0000
    -0.0000  -0.0000  -0.0000  -0.0000  -0.0000  -0.0000  -0.0000  -0.0000
    -0.0000  -0.0000  -0.0000  -0.0000  -0.0000  -0.0000  -0.0000  -0.0000
    -0.0000  -0.0000  -0.0000  -0.0000  -0.0000  -0.0000  -0.0000  -0.0000
    -0.0000  -0.0000  -0.0000  -0.0000  -0.0000  -0.0000  -0.0000  -0.0000
    -0.0000  -0.0000  -0.0000  -0.0000  -0.0000  -0.0000  -0.0000  -0.0000
    -0.0000  -0.0000  -0.0000  -0.0000  -0.0000  -0.0000  -0.0000  -0.0000
    -0.0000  -0.0000

          k = 0.1111 0.1111 0.1203 (  1644 PWs)   bands (ev):

   -71.9887 -68.4032 -38.1876 -37.9085 -37.9081 -34.5544 -34.4377 -34.4372
     8.4245   8.5550  11.2315  11.3804  11.7642  11.7753  13.3439  13.8220
    14.1783  14.3586  14.4585  14.6132  14.6924  15.0887  15.7383  15.9377
    16.2035  16.2945  16.7620  17.5494  18.3750  18.3830  19.4118  20.3568
    27.5554  28.0837  28.1174  28.6074  28.9341  29.5256  34.5124  34.7279
    35.2644  35.5075  37.9382  38.0359  38.8611  39.0661  39.3724  39.4087
    40.9089  41.1689  42.7607  43.0109  46.4202  46.6738  46.8412  46.9747
    47.0592  47.3702  48.6194  48.7851  50.0866  50.1097  52.2204  52.8819
    54.1698  54.3860  54.5059  54.7448  55.8240  56.2062  56.4824  56.9496
    59.1894  59.4707  60.5413  60.6328  61.1085  61.7025  62.8009  63.1097
    65.0647  65.1606  66.5334  66.9713  68.4794  68.8881  69.9361  70.2608
    70.7680  71.3293  73.1939  73.4296  73.6106  73.8797  74.9897  75.4252
    77.7485  78.4414

     occupation numbers 
     1.0000   1.0000   1.0000   1.0000   1.0000   1.0000   1.0000   1.0000
     1.0000   1.0000   1.0000   1.0000   1.0000   1.0000   1.0000   1.0000
     1.0000   1.0000   1.0000   1.0000   1.0000   1.0000   1.0000   1.0000
     1.0000   1.0000   1.0254  -0.0000  -0.0000  -0.0000  -0.0000  -0.0000
    -0.0000  -0.0000  -0.0000  -0.0000  -0.0000  -0.0000  -0.0000  -0.0000
    -0.0000  -0.0000  -0.0000  -0.0000  -0.0000  -0.0000  -0.0000  -0.0000
    -0.0000  -0.0000  -0.0000  -0.0000  -0.0000  -0.0000  -0.0000  -0.0000
    -0.0000  -0.0000  -0.0000  -0.0000  -0.0000  -0.0000  -0.0000  -0.0000
    -0.0000  -0.0000  -0.0000  -0.0000  -0.0000  -0.0000  -0.0000  -0.0000
    -0.0000  -0.0000  -0.0000  -0.0000  -0.0000  -0.0000  -0.0000  -0.0000
    -0.0000  -0.0000  -0.0000  -0.0000  -0.0000  -0.0000  -0.0000  -0.0000
    -0.0000  -0.0000  -0.0000  -0.0000  -0.0000  -0.0000  -0.0000  -0.0000
    -0.0000  -0.0000

          k = 0.1111 0.1111 0.2406 (  1650 PWs)   bands (ev):

   -71.9887 -68.4031 -38.1888 -37.9086 -37.9083 -34.5560 -34.4378 -34.4374
     9.2520   9.3745  11.4708  11.5673  11.8929  11.8962  13.3553  13.7285
    14.0172  14.2916  14.3131  14.4002  14.5513  15.2121  15.4946  15.5328
    15.8628  15.9464  16.2618  17.3537  17.5442  17.7981  18.2255  19.0418
    29.2932  29.5756  29.7528  30.1548  31.7741  32.3072  33.2634  33.3625
    33.6313  33.7223  37.9431  38.3401  38.7309  39.2033  39.6091  39.6259
    40.3799  40.5862  43.1146  43.3853  44.1801  44.8599  46.5877  46.8600
    47.8567  47.9838  48.4028  48.4431  51.0559  51.1715  51.2978  51.5733
    52.9323  53.4488  54.8575  54.9348  55.6479  55.7135  58.1599  58.2973
    58.5271  58.9909  59.2765  59.6808  60.5743  61.0925  64.1219  64.4634
    65.2427  65.4225  65.7572  65.8735  68.9735  69.4956  70.5666  70.6510
    71.4347  71.7295  73.1220  73.4666  75.8092  76.1978  76.6276  76.8785
    77.0131  77.4875

     occupation numbers 
     1.0000   1.0000   1.0000   1.0000   1.0000   1.0000   1.0000   1.0000
     1.0000   1.0000   1.0000   1.0000   1.0000   1.0000   1.0000   1.0000
     1.0000   1.0000   1.0000   1.0000   1.0000   1.0000   1.0000   1.0000
     1.0000   1.0000   1.0000  -0.0003  -0.0000  -0.0000  -0.0000  -0.0000
    -0.0000  -0.0000  -0.0000  -0.0000  -0.0000  -0.0000  -0.0000  -0.0000
    -0.0000  -0.0000  -0.0000  -0.0000  -0.0000  -0.0000  -0.0000  -0.0000
    -0.0000  -0.0000  -0.0000  -0.0000  -0.0000  -0.0000  -0.0000  -0.0000
    -0.0000  -0.0000  -0.0000  -0.0000  -0.0000  -0.0000  -0.0000  -0.0000
    -0.0000  -0.0000  -0.0000  -0.0000  -0.0000  -0.0000  -0.0000  -0.0000
    -0.0000  -0.0000  -0.0000  -0.0000  -0.0000  -0.0000  -0.0000  -0.0000
    -0.0000  -0.0000  -0.0000  -0.0000  -0.0000  -0.0000  -0.0000  -0.0000
    -0.0000  -0.0000  -0.0000  -0.0000  -0.0000  -0.0000  -0.0000  -0.0000
    -0.0000  -0.0000

          k = 0.1111 0.1111-0.3610 (  1660 PWs)   bands (ev):

   -71.9887 -68.4031 -38.1898 -37.9086 -37.9085 -34.5572 -34.4377 -34.4377
     9.9169  10.0118  11.3977  11.6795  11.7484  11.9681  13.2927  13.6439
    13.6956  14.3107  14.4090  14.6759  14.7342  14.9164  14.9311  15.0695
    15.6615  16.2030  16.2668  16.2988  17.4762  17.5448  18.1869  18.6246
    30.7854  30.8104  31.1241  31.2260  31.5330  31.7926  32.3003  32.6176
    34.8015  35.2921  37.3247  37.3559  37.5140  37.7613  40.3190  40.4048
    40.9577  41.4292  41.5289  41.9646  44.4080  44.8948  46.5140  46.5842
    47.5999  47.8369  48.1593  48.1954  51.3405  51.4884  51.8612  52.2364
    52.2557  52.4410  53.8532  54.4228  56.8387  56.8524  57.3055  57.9154
    58.9812  59.3838  60.4772  60.6818  61.5294  61.8589  62.3180  62.4477
    64.0312  64.3115  66.2913  66.5924  68.5333  69.1848  69.4936  69.9197
    73.3776  73.6611  73.6613  73.9567  74.7042  74.9321  76.4886  76.5454
    79.6141  79.8476

     occupation numbers 
     1.0000   1.0000   1.0000   1.0000   1.0000   1.0000   1.0000   1.0000
     1.0000   1.0000   1.0000   1.0000   1.0000   1.0000   1.0000   1.0000
     1.0000   1.0000   1.0000   1.0000   1.0000   1.0000   1.0000   1.0000
     1.0000   1.0000   1.0000   1.0000  -0.0000  -0.0000  -0.0000  -0.0000
    -0.0000  -0.0000  -0.0000  -0.0000  -0.0000  -0.0000  -0.0000  -0.0000
    -0.0000  -0.0000  -0.0000  -0.0000  -0.0000  -0.0000  -0.0000  -0.0000
    -0.0000  -0.0000  -0.0000  -0.0000  -0.0000  -0.0000  -0.0000  -0.0000
    -0.0000  -0.0000  -0.0000  -0.0000  -0.0000  -0.0000  -0.0000  -0.0000
    -0.0000  -0.0000  -0.0000  -0.0000  -0.0000  -0.0000  -0.0000  -0.0000
    -0.0000  -0.0000  -0.0000  -0.0000  -0.0000  -0.0000  -0.0000  -0.0000
    -0.0000  -0.0000  -0.0000  -0.0000  -0.0000  -0.0000  -0.0000  -0.0000
    -0.0000  -0.0000  -0.0000  -0.0000  -0.0000  -0.0000  -0.0000  -0.0000
    -0.0000  -0.0000

          k = 0.1111 0.2222 0.0000 (  1653 PWs)   bands (ev):

   -71.9863 -68.4003 -38.1848 -37.9358 -37.9063 -34.5509 -34.4699 -34.4350
     8.9610   9.1011  11.4731  11.9096  11.9864  12.4304  12.9328  13.6205
    13.9482  14.2346  14.2761  14.5233  14.5858  15.1794  15.2073  15.3610
    16.3594  16.5187  16.7709  17.6868  18.0564  18.5392  22.7257  23.3680
    24.2928  24.8806  26.4387  27.1577  28.9646  29.4961  34.5659  34.8029
    35.0858  35.3903  37.6322  37.8970  38.1702  38.2776  39.1604  39.4932
    42.2980  42.9731  43.4627  43.9021  45.0710  45.2389  45.3457  45.4317
    47.8821  48.2202  48.9501  49.0310  51.3794  51.4454  53.1678  53.5388
    53.6640  53.7114  53.7878  53.9279  56.8986  57.4464  57.4765  58.2034
    60.0732  60.2289  60.9879  60.9966  61.5282  62.1909  63.5954  63.8034
    66.1602  66.7119  66.9012  66.9847  69.9802  70.2698  70.3903  70.7381
    71.2669  71.4296  72.1597  72.7296  73.2827  73.9456  74.9609  75.4493
    76.7725  77.0771

     occupation numbers 
     1.0000   1.0000   1.0000   1.0000   1.0000   1.0000   1.0000   1.0000
[...]
    11.8476  11.9136  12.0858  12.1021  12.5257  12.8244  12.8467  13.2798
    13.2945  14.2228  14.5073  14.5169  14.9071  15.2225  15.4565  15.5385
    15.7412  17.3769  17.6894  17.9954  18.8301  20.1695  20.3823  21.2780
    26.2872  26.5399  26.7018  27.1641  27.2153  27.2559  27.5279  27.7783
    31.9148  32.5587  34.2572  34.4552  38.6785  39.0044  39.6866  39.8100
    42.7251  42.8539  44.9425  44.9701  47.8587  47.8993  48.5983  48.7823
    49.0240  49.3028  49.3423  49.4730  53.7405  54.1059  54.1744  54.2373
    54.7139  55.0755  55.9162  56.3892  57.6782  58.0168  58.0970  58.5959
    59.2370  59.2728  59.5054  59.5780  65.7648  66.1057  67.1135  67.3871
    67.4616  67.9736  68.3430  68.7680  70.7556  71.2690  71.5156  71.6531
    71.9794  72.0891  72.4713  72.7994  74.0079  74.7541  75.0990  75.6032
    75.9762  76.1414

     occupation numbers 
     1.0000   1.0000   1.0000   1.0000   1.0000   1.0000   1.0000   1.0000
     1.0000   1.0000   1.0000   1.0000   1.0000   1.0000   1.0000   1.0000
     1.0000   1.0000   1.0000   1.0000   1.0000   1.0000   1.0000   1.0000
     1.0000  -0.0001  -0.0000  -0.0000  -0.0000  -0.0000  -0.0000  -0.0000
    -0.0000  -0.0000  -0.0000  -0.0000  -0.0000  -0.0000  -0.0000  -0.0000
    -0.0000  -0.0000  -0.0000  -0.0000  -0.0000  -0.0000  -0.0000  -0.0000
    -0.0000  -0.0000  -0.0000  -0.0000  -0.0000  -0.0000  -0.0000  -0.0000
    -0.0000  -0.0000  -0.0000  -0.0000  -0.0000  -0.0000  -0.0000  -0.0000
    -0.0000  -0.0000  -0.0000  -0.0000  -0.0000  -0.0000  -0.0000  -0.0000
    -0.0000  -0.0000  -0.0000  -0.0000  -0.0000  -0.0000  -0.0000  -0.0000
    -0.0000  -0.0000  -0.0000  -0.0000  -0.0000  -0.0000  -0.0000  -0.0000
    -0.0000  -0.0000  -0.0000  -0.0000  -0.0000  -0.0000  -0.0000  -0.0000
    -0.0000  -0.0000

          k = 0.3333 0.4444 0.0000 (  1638 PWs)   bands (ev):

   -71.9762 -68.3888 -38.1751 -37.9802 -37.9587 -34.5389 -34.5223 -34.4967
    10.7055  11.1262  11.4798  11.5563  11.7741  12.2379  12.3058  12.6106
    14.8289  15.1623  15.2485  15.4891  15.8945  15.9210  16.3158  16.7376
    17.4354  17.9366  18.2039  18.2372  18.5650  18.6983  20.0021  20.6348
    26.0290  26.6895  28.2618  28.4722  28.8009  28.9868  29.1998  29.8763
    30.1694  30.4510  30.5035  30.6989  37.7799  37.8674  38.1785  38.1862
    39.2994  39.5656  39.7506  40.0737  48.5583  48.7145  50.8636  50.9535
    54.0388  54.0592  54.5624  54.7412  55.3156  55.6307  56.3318  56.4553
    57.1444  57.3578  57.3722  57.5387  57.9657  58.1463  61.2872  61.3514
    61.5231  62.2442  62.9761  63.1183  63.2730  63.6039  63.9137  64.1324
    65.1921  65.4731  65.7965  66.4027  66.4235  66.7261  67.7214  68.0437
    69.1120  69.4020  69.7196  69.9915  71.5204  71.7589  71.9428  72.1388
    73.3299  73.6830

     occupation numbers 
     1.0000   1.0000   1.0000   1.0000   1.0000   1.0000   1.0000   1.0000
     1.0000   1.0000   1.0000   1.0000   1.0000   1.0000   1.0000   1.0000
     1.0000   1.0000   1.0000   1.0000   1.0000   1.0000   1.0000   1.0173
    -0.0000  -0.0000  -0.0000  -0.0000  -0.0000  -0.0000  -0.0000  -0.0000
    -0.0000  -0.0000  -0.0000  -0.0000  -0.0000  -0.0000  -0.0000  -0.0000
    -0.0000  -0.0000  -0.0000  -0.0000  -0.0000  -0.0000  -0.0000  -0.0000
    -0.0000  -0.0000  -0.0000  -0.0000  -0.0000  -0.0000  -0.0000  -0.0000
    -0.0000  -0.0000  -0.0000  -0.0000  -0.0000  -0.0000  -0.0000  -0.0000
    -0.0000  -0.0000  -0.0000  -0.0000  -0.0000  -0.0000  -0.0000  -0.0000
    -0.0000  -0.0000  -0.0000  -0.0000  -0.0000  -0.0000  -0.0000  -0.0000
    -0.0000  -0.0000  -0.0000  -0.0000  -0.0000  -0.0000  -0.0000  -0.0000
    -0.0000  -0.0000  -0.0000  -0.0000  -0.0000  -0.0000  -0.0000  -0.0000
    -0.0000  -0.0000

          k = 0.3333 0.4444 0.1203 (  1630 PWs)   bands (ev):

   -71.9761 -68.3888 -38.1753 -37.9801 -37.9587 -34.5392 -34.5222 -34.4968
    10.8460  11.2383  11.6546  11.6923  11.9575  12.2298  12.6501  12.6658
    14.4817  14.6617  15.0996  15.1171  15.5793  15.9398  16.3510  16.5310
    17.4191  17.9206  18.1962  18.2112  18.6042  19.4527  20.6469  21.3891
    25.2669  25.6898  26.9066  27.5342  27.5607  28.1338  28.9795  29.6578
    30.6654  31.1941  32.1900  32.3228  36.9958  37.2591  37.3105  37.7095
    40.4023  40.8254  42.8089  43.0063  48.7024  48.8674  50.2896  50.4368
    51.0654  51.1711  51.7618  51.8378  55.5653  55.8356  56.3744  56.6828
    56.9951  57.3443  58.2894  58.6569  59.1854  59.4232  59.8649  60.0138
    61.5752  62.0694  63.4134  63.6323  63.7244  64.0703  64.4764  64.9349
    65.4429  65.7180  66.2698  66.6493  66.7344  66.8138  67.5717  68.0008
    69.6396  70.0949  70.4580  70.8963  71.2663  71.6205  72.5587  73.0216
    73.6601  74.1910

     occupation numbers 
     1.0000   1.0000   1.0000   1.0000   1.0000   1.0000   1.0000   1.0000
     1.0000   1.0000   1.0000   1.0000   1.0000   1.0000   1.0000   1.0000
     1.0000   1.0000   1.0000   1.0000   1.0000   1.0000   1.0000   1.0000
    -0.0000  -0.0000  -0.0000  -0.0000  -0.0000  -0.0000  -0.0000  -0.0000
    -0.0000  -0.0000  -0.0000  -0.0000  -0.0000  -0.0000  -0.0000  -0.0000
    -0.0000  -0.0000  -0.0000  -0.0000  -0.0000  -0.0000  -0.0000  -0.0000
    -0.0000  -0.0000  -0.0000  -0.0000  -0.0000  -0.0000  -0.0000  -0.0000
    -0.0000  -0.0000  -0.0000  -0.0000  -0.0000  -0.0000  -0.0000  -0.0000
    -0.0000  -0.0000  -0.0000  -0.0000  -0.0000  -0.0000  -0.0000  -0.0000
    -0.0000  -0.0000  -0.0000  -0.0000  -0.0000  -0.0000  -0.0000  -0.0000
    -0.0000  -0.0000  -0.0000  -0.0000  -0.0000  -0.0000  -0.0000  -0.0000
    -0.0000  -0.0000  -0.0000  -0.0000  -0.0000  -0.0000  -0.0000  -0.0000
    -0.0000  -0.0000

          k = 0.3333 0.4444 0.2406 (  1633 PWs)   bands (ev):

   -71.9761 -68.3888 -38.1762 -37.9803 -37.9587 -34.5403 -34.5224 -34.4969
    11.2049  11.5107  11.8263  12.1112  12.1555  12.6039  12.7733  13.5564
    13.6221  13.9508  14.7763  14.7896  15.2757  15.7823  15.8950  16.5348
    16.5516  17.7538  17.8271  18.4741  19.5442  20.7397  22.0051  22.7783
    23.1787  23.7754  25.5491  26.2010  27.2357  27.8997  28.8896  29.5791
    30.4600  30.8731  32.2525  32.5632  37.4841  37.7794  39.1777  39.3775
    43.4597  43.7605  45.1098  45.5017  47.2052  47.4207  48.4496  48.5509
    49.4680  49.5702  51.5613  51.6714  53.2207  53.9017  54.3751  54.7389
    56.8690  56.9830  57.0781  57.2988  59.0431  59.2576  59.6423  59.8442
    61.0673  61.5999  63.6163  63.7678  63.9823  64.1831  65.0695  65.2748
    66.6011  67.0480  67.5571  67.8307  68.5761  68.8513  69.0010  69.1969
    70.5522  71.1261  71.1947  71.5198  72.5100  72.7946  74.0100  74.6163
    75.4460  76.0177

     occupation numbers 
     1.0000   1.0000   1.0000   1.0000   1.0000   1.0000   1.0000   1.0000
     1.0000   1.0000   1.0000   1.0000   1.0000   1.0000   1.0000   1.0000
     1.0000   1.0000   1.0000   1.0000   1.0000   1.0000   1.0000   1.0000
     1.0001  -0.0000  -0.0000  -0.0000  -0.0000  -0.0000  -0.0000  -0.0000
    -0.0000  -0.0000  -0.0000  -0.0000  -0.0000  -0.0000  -0.0000  -0.0000
    -0.0000  -0.0000  -0.0000  -0.0000  -0.0000  -0.0000  -0.0000  -0.0000
    -0.0000  -0.0000  -0.0000  -0.0000  -0.0000  -0.0000  -0.0000  -0.0000
    -0.0000  -0.0000  -0.0000  -0.0000  -0.0000  -0.0000  -0.0000  -0.0000
    -0.0000  -0.0000  -0.0000  -0.0000  -0.0000  -0.0000  -0.0000  -0.0000
    -0.0000  -0.0000  -0.0000  -0.0000  -0.0000  -0.0000  -0.0000  -0.0000
    -0.0000  -0.0000  -0.0000  -0.0000  -0.0000  -0.0000  -0.0000  -0.0000
    -0.0000  -0.0000  -0.0000  -0.0000  -0.0000  -0.0000  -0.0000  -0.0000
    -0.0000  -0.0000

          k = 0.3333 0.4444-0.3610 (  1638 PWs)   bands (ev):

   -71.9762 -68.3888 -38.1767 -37.9803 -37.9589 -34.5410 -34.5225 -34.4971
    11.5455  11.7299  11.7593  12.0267  12.5927  12.8518  12.8526  13.1703
    13.6471  14.2875  14.5633  14.9718  15.1769  15.3573  15.7368  15.8084
    16.4828  17.6134  17.6892  18.4069  20.6597  21.5046  21.6583  22.4566
    23.5795  24.1475  24.1714  24.9731  27.6047  28.4122  29.0775  29.3264
    29.7172  30.3812  31.6998  32.0391  39.0643  39.3373  41.2684  41.2889
    42.4675  42.6732  45.0573  45.3298  47.2769  47.7865  48.8616  49.5749
    50.1620  50.1918  50.7706  51.0405  52.5315  52.6010  53.7902  53.8439
    54.4384  54.9362  56.4948  56.5217  58.4511  58.9859  59.8683  60.1800
    62.1345  62.5491  62.6070  62.8983  63.9141  64.3086  64.8210  64.8466
    66.8585  67.2537  67.7960  68.2250  68.2920  68.7995  71.3415  71.4271
    72.6755  73.0010  73.3074  73.5581  73.6305  74.1536  74.9241  75.2062
    75.3532  75.7368

     occupation numbers 
     1.0000   1.0000   1.0000   1.0000   1.0000   1.0000   1.0000   1.0000
     1.0000   1.0000   1.0000   1.0000   1.0000   1.0000   1.0000   1.0000
     1.0000   1.0000   1.0000   1.0000   1.0000   1.0000   1.0000   1.0000
     1.0000  -0.0000  -0.0000  -0.0000  -0.0000  -0.0000  -0.0000  -0.0000
    -0.0000  -0.0000  -0.0000  -0.0000  -0.0000  -0.0000  -0.0000  -0.0000
    -0.0000  -0.0000  -0.0000  -0.0000  -0.0000  -0.0000  -0.0000  -0.0000
    -0.0000  -0.0000  -0.0000  -0.0000  -0.0000  -0.0000  -0.0000  -0.0000
    -0.0000  -0.0000  -0.0000  -0.0000  -0.0000  -0.0000  -0.0000  -0.0000
    -0.0000  -0.0000  -0.0000  -0.0000  -0.0000  -0.0000  -0.0000  -0.0000
    -0.0000  -0.0000  -0.0000  -0.0000  -0.0000  -0.0000  -0.0000  -0.0000
    -0.0000  -0.0000  -0.0000  -0.0000  -0.0000  -0.0000  -0.0000  -0.0000
    -0.0000  -0.0000  -0.0000  -0.0000  -0.0000  -0.0000  -0.0000  -0.0000
    -0.0000  -0.0000

          k = 0.4444 0.4444 0.0000 (  1622 PWs)   bands (ev):

   -71.9743 -68.3867 -38.1730 -37.9779 -37.9778 -34.5363 -34.5195 -34.5194
    10.3132  10.7122  11.3478  11.3912  11.4098  12.1637  12.1669  12.3363
    15.5149  15.7101  16.2826  16.2900  16.4096  16.8825  17.0586  17.9437
    17.9472  18.3422  18.4236  18.5698  18.5865  18.7057  19.4665  19.8992
    24.8896  25.6728  27.2650  28.1802  28.2248  28.8472  29.1756  29.4143
    29.7531  29.9464  30.6220  30.6293  36.9728  37.1793  37.5638  38.0153
    38.0172  38.0630  38.4733  38.5034  51.3458  51.4830  52.7321  52.8946
    55.4229  55.4788  56.9381  56.9537  56.9548  57.0399  57.1992  57.2804
    58.3412  58.6998  59.1988  59.2595  60.0134  60.3042  60.3444  60.4314
    61.2262  61.3017  62.9678  63.1015  63.2189  63.2494  63.7236  63.7823
    63.8559  64.0814  64.6963  64.9187  65.2060  65.7261  65.9202  66.8119
    67.2549  67.7772  68.4184  68.8168  69.5046  69.6695  71.1200  71.1747
    71.6877  71.7787

     occupation numbers 
     1.0000   1.0000   1.0000   1.0000   1.0000   1.0000   1.0000   1.0000
     1.0000   1.0000   1.0000   1.0000   1.0000   1.0000   1.0000   1.0000
     1.0000   1.0000   1.0000   1.0000   1.0000   0.9467   0.0667  -0.0000
    -0.0000  -0.0000  -0.0000  -0.0000  -0.0000  -0.0000  -0.0000  -0.0000
    -0.0000  -0.0000  -0.0000  -0.0000  -0.0000  -0.0000  -0.0000  -0.0000
    -0.0000  -0.0000  -0.0000  -0.0000  -0.0000  -0.0000  -0.0000  -0.0000
    -0.0000  -0.0000  -0.0000  -0.0000  -0.0000  -0.0000  -0.0000  -0.0000
    -0.0000  -0.0000  -0.0000  -0.0000  -0.0000  -0.0000  -0.0000  -0.0000
    -0.0000  -0.0000  -0.0000  -0.0000  -0.0000  -0.0000  -0.0000  -0.0000
    -0.0000  -0.0000  -0.0000  -0.0000  -0.0000  -0.0000  -0.0000  -0.0000
    -0.0000  -0.0000  -0.0000  -0.0000  -0.0000  -0.0000  -0.0000  -0.0000
    -0.0000  -0.0000  -0.0000  -0.0000  -0.0000  -0.0000  -0.0000  -0.0000
    -0.0000  -0.0000

          k = 0.4444 0.4444 0.1203 (  1620 PWs)   bands (ev):

   -71.9742 -68.3867 -38.1733 -37.9780 -37.9779 -34.5368 -34.5196 -34.5196
    10.4762  10.8377  11.5204  11.5275  11.6547  12.2162  12.2275  12.7058
    15.2024  15.2459  15.3540  15.9383  16.1614  16.6727  16.9170  17.1278
    17.7817  18.0106  18.4141  18.6382  19.1528  20.1255  20.4535  21.1182
    24.9599  25.6617  26.3778  27.2202  27.3415  27.8568  28.9329  28.9706
    29.2492  29.4538  30.3866  30.5808  37.3758  37.7447  38.3440  38.7207
    38.8917  39.3215  40.6279  40.8619  51.0039  51.0627  51.1452  51.1997
    53.0998  53.1150  54.6377  54.7639  56.0940  56.1172  56.8227  57.5186
    57.7977  58.0205  59.7685  59.8743  60.1496  60.2018  60.8067  61.0615
    61.9526  62.1016  62.4700  62.9435  63.3317  63.5138  63.5162  63.6033
    65.8947  66.1145  66.2103  66.5520  66.6774  66.6877  67.2164  67.2166
    67.4661  68.0500  69.1057  69.3403  69.8491  69.9034  70.5619  70.9294
    72.2582  72.8296

     occupation numbers 
     1.0000   1.0000   1.0000   1.0000   1.0000   1.0000   1.0000   1.0000
     1.0000   1.0000   1.0000   1.0000   1.0000   1.0000   1.0000   1.0000
     1.0000   1.0000   1.0000   1.0000   1.0000   1.0039   0.8171  -0.0342
    -0.0000  -0.0000  -0.0000  -0.0000  -0.0000  -0.0000  -0.0000  -0.0000
    -0.0000  -0.0000  -0.0000  -0.0000  -0.0000  -0.0000  -0.0000  -0.0000
    -0.0000  -0.0000  -0.0000  -0.0000  -0.0000  -0.0000  -0.0000  -0.0000
    -0.0000  -0.0000  -0.0000  -0.0000  -0.0000  -0.0000  -0.0000  -0.0000
    -0.0000  -0.0000  -0.0000  -0.0000  -0.0000  -0.0000  -0.0000  -0.0000
    -0.0000  -0.0000  -0.0000  -0.0000  -0.0000  -0.0000  -0.0000  -0.0000
    -0.0000  -0.0000  -0.0000  -0.0000  -0.0000  -0.0000  -0.0000  -0.0000
    -0.0000  -0.0000  -0.0000  -0.0000  -0.0000  -0.0000  -0.0000  -0.0000
    -0.0000  -0.0000  -0.0000  -0.0000  -0.0000  -0.0000  -0.0000  -0.0000
    -0.0000  -0.0000

          k = 0.4444 0.4444 0.2406 (  1634 PWs)   bands (ev):

   -71.9743 -68.3867 -38.1745 -37.9785 -37.9783 -34.5383 -34.5202 -34.5200
    10.8617  11.1160  11.8723  11.9102  12.3178  12.3759  12.3782  13.7450
    14.0017  14.1095  14.8984  15.6350  15.8761  15.9151  15.9448  16.8011
    17.2069  17.8200  18.0290  18.6324  20.9437  21.8724  22.4404  23.1275
    24.5614  25.0916  25.3699  26.0540  26.2800  26.7633  27.1564  27.5761
    28.3019  28.7793  29.8252  30.2743  39.0405  39.3576  40.1761  40.4401
    42.1666  42.6663  44.2105  44.3042  47.8699  47.9118  47.9896  48.0117
    51.6249  52.4590  52.7589  52.8000  55.2151  55.3023  55.3157  55.3697
    56.4290  56.4364  58.6319  58.8885  59.9856  60.0028  60.3590  60.6905
    61.6693  62.2166  62.2551  62.4228  63.6248  64.1304  65.2047  65.2632
    65.5947  65.8573  68.0594  68.1067  68.3369  68.6240  69.2842  69.8870
    70.0370  70.4748  70.7842  71.1972  71.6203  71.8843  72.0428  72.3897
    72.8059  72.9712

     occupation numbers 
     1.0000   1.0000   1.0000   1.0000   1.0000   1.0000   1.0000   1.0000
     1.0000   1.0000   1.0000   1.0000   1.0000   1.0000   1.0000   1.0000
     1.0000   1.0000   1.0000   1.0000   1.0000   1.0000   1.0000   1.0353
    -0.0177  -0.0000  -0.0000  -0.0000  -0.0000  -0.0000  -0.0000  -0.0000
    -0.0000  -0.0000  -0.0000  -0.0000  -0.0000  -0.0000  -0.0000  -0.0000
    -0.0000  -0.0000  -0.0000  -0.0000  -0.0000  -0.0000  -0.0000  -0.0000
    -0.0000  -0.0000  -0.0000  -0.0000  -0.0000  -0.0000  -0.0000  -0.0000
    -0.0000  -0.0000  -0.0000  -0.0000  -0.0000  -0.0000  -0.0000  -0.0000
    -0.0000  -0.0000  -0.0000  -0.0000  -0.0000  -0.0000  -0.0000  -0.0000
    -0.0000  -0.0000  -0.0000  -0.0000  -0.0000  -0.0000  -0.0000  -0.0000
    -0.0000  -0.0000  -0.0000  -0.0000  -0.0000  -0.0000  -0.0000  -0.0000
    -0.0000  -0.0000  -0.0000  -0.0000  -0.0000  -0.0000  -0.0000  -0.0000
    -0.0000  -0.0000

          k = 0.4444 0.4444-0.3610 (  1642 PWs)   bands (ev):

   -71.9743 -68.3867 -38.1750 -37.9788 -37.9787 -34.5389 -34.5205 -34.5204
    11.1045  11.2744  12.1558  12.2569  12.3665  12.4644  12.9149  13.3918
    13.4733  14.6314  15.1558  15.1942  15.2051  15.5729  15.7921  15.8699
    17.2222  17.7885  17.8131  18.6322  22.2642  23.0221  23.2992  24.1224
    24.2165  24.9028  25.0750  25.4225  25.8834  26.2315  26.4714  26.6471
    27.3112  28.0708  29.6712  30.1336  40.7331  41.0017  41.6407  41.8657
    43.9416  43.9841  45.3015  45.7656  45.8197  45.8311  47.7206  48.4851
    49.2189  49.4478  53.2329  53.2399  53.5435  53.5777  54.6454  54.7708
    56.2593  56.2730  57.4973  57.8530  59.8978  60.0524  60.0711  60.1452
    61.1246  61.8163  63.3099  63.7234  64.1091  64.5427  65.1672  65.2865
    65.4173  65.7783  67.2621  67.9067  68.1638  68.7941  68.9865  69.6719
    71.2389  71.2713  71.8713  72.2024  73.8139  74.2176  74.3232  74.3945
    76.4355  76.5339

     occupation numbers 
     1.0000   1.0000   1.0000   1.0000   1.0000   1.0000   1.0000   1.0000
     1.0000   1.0000   1.0000   1.0000   1.0000   1.0000   1.0000   1.0000
     1.0000   1.0000   1.0000   1.0000   1.0000   1.0000   1.0000   1.0000
    -0.0132  -0.0000  -0.0000  -0.0000  -0.0000  -0.0000  -0.0000  -0.0000
    -0.0000  -0.0000  -0.0000  -0.0000  -0.0000  -0.0000  -0.0000  -0.0000
    -0.0000  -0.0000  -0.0000  -0.0000  -0.0000  -0.0000  -0.0000  -0.0000
    -0.0000  -0.0000  -0.0000  -0.0000  -0.0000  -0.0000  -0.0000  -0.0000
    -0.0000  -0.0000  -0.0000  -0.0000  -0.0000  -0.0000  -0.0000  -0.0000
    -0.0000  -0.0000  -0.0000  -0.0000  -0.0000  -0.0000  -0.0000  -0.0000
    -0.0000  -0.0000  -0.0000  -0.0000  -0.0000  -0.0000  -0.0000  -0.0000
    -0.0000  -0.0000  -0.0000  -0.0000  -0.0000  -0.0000  -0.0000  -0.0000
    -0.0000  -0.0000  -0.0000  -0.0000  -0.0000  -0.0000  -0.0000  -0.0000
    -0.0000  -0.0000

     the Fermi energy is    16.9728 ev
     (compare with:    16.9627 eV, computed in scf)

     Writing all to output data dir ./work/pwscf.save/
 
     init_run     :      0.15s CPU      0.17s WALL (       1 calls)
     electrons    :     50.83s CPU     52.49s WALL (       1 calls)

     Called by init_run:
     wfcinit      :      0.00s CPU      0.00s WALL (       1 calls)
     wfcinit:atom :      0.00s CPU      0.00s WALL (      60 calls)
     wfcinit:wfcr :      1.36s CPU      1.45s WALL (      60 calls)
     potinit      :      0.01s CPU      0.02s WALL (       1 calls)
     hinit0       :      0.10s CPU      0.10s WALL (       1 calls)

     Called by electrons:
     c_bands      :     50.82s CPU     52.48s WALL (       1 calls)
     v_of_rho     :      0.01s CPU      0.01s WALL (       1 calls)
     v_h          :      0.00s CPU      0.00s WALL (       1 calls)
     v_xc         :      0.01s CPU      0.01s WALL (       1 calls)
     newd         :      0.02s CPU      0.03s WALL (       1 calls)

     Called by c_bands:
     init_us_2    :      0.00s CPU      0.00s WALL (      60 calls)
     init_us_2:cp :      0.00s CPU      0.00s WALL (      60 calls)
     cegterg      :     49.39s CPU     50.82s WALL (     125 calls)

     Called by sum_band:

     Called by *egterg:
     cdiaghg      :     24.06s CPU     24.09s WALL (    2062 calls)
     cegterg:over :      2.64s CPU      2.75s WALL (    2002 calls)
     cegterg:upda :      0.77s CPU      0.78s WALL (    2002 calls)
     cegterg:last :      2.15s CPU      2.16s WALL (    1035 calls)
     h_psi        :     19.17s CPU     20.50s WALL (    2187 calls)
     s_psi        :      0.49s CPU      0.50s WALL (    2187 calls)
     g_psi        :      0.05s CPU      0.05s WALL (    2002 calls)

     Called by h_psi:
     h_psi:calbec :      0.45s CPU      0.49s WALL (    2187 calls)
     vloc_psi     :     18.15s CPU     19.40s WALL (    2187 calls)
     add_vuspsi   :      0.52s CPU      0.56s WALL (    2187 calls)

     General routines
     calbec       :      0.44s CPU      0.48s WALL (    2187 calls)
     fft          :      0.02s CPU      0.02s WALL (      31 calls)
     ffts         :      0.00s CPU      0.00s WALL (       4 calls)
     fftw         :     15.88s CPU     16.98s WALL (  426724 calls)
     interpolate  :      0.00s CPU      0.00s WALL (       4 calls)
 
     Parallel routines
 
     PWSCF        :     52.50s CPU     57.32s WALL

 
   This run was terminated on:  15:10:19  23May2024            

=------------------------------------------------------------------------------=
   JOB DONE.
=------------------------------------------------------------------------------=
