
     Program PW2WANNIER v.7.0 starts on 23May2024 at 15:10:20 

     This program is part of the open-source Quantum ESPRESSO suite
     for quantum simulation of materials; please cite
         "P. Giannozzi et al., J. Phys.:Condens. Matter 21 395502 (2009);
         "P. Giannozzi et al., J. Phys.:Condens. Matter 29 465901 (2017);
         "P. Giannozzi et al., J. Chem. Phys. 152 154105 (2020);
          URL http://www.quantum-espresso.org", 
     in publications or presentations arising from this work. More details at
     http://www.quantum-espresso.org/quote

     Parallel version (MPI), running on    22 processors

     MPI processes distributed on     1 nodes
     R & G space division:  proc/nbgrp/npool/nimage =      22
     188249 MiB available memory on the printing compute node when the environment starts
 
 
  Reading nscf_save data

     Reading xml data from directory:

     ./work/pwscf.save/

     IMPORTANT: XC functional enforced from input :
     Exchange-correlation= PBE
                           (   1   4   3   4   0   0   0)
     Any further DFT definition will be discarded
     Please, verify this is what you really want

 
     Parallelization info
     --------------------
     sticks:   dense  smooth     PW     G-vecs:    dense   smooth      PW
     Min          74      24      8                 3184      596     102
     Max          75      25      9                 3189      601     104
     Sum        1649     545    177                70151    13173    2261
 
     Using Slab Decomposition
 

     Check: negative core charge=   -0.000005
     Reading collected, re-writing distributed wavefunctions
 
  Spin CASE ( non-collinear )
 
  Wannier mode is: standalone     
 
  -----------------
  *** Reading nnkp 
  -----------------
 
  Checking info from wannier.nnkp file
 
  - Real lattice is ok
  - Reciprocal lattice is ok
  - K-points are ok
  - Number of wannier functions is ok ( 36)
  - All guiding functions are given 
 
 Projections:
    0.000000    0.000000    0.000000  0  1  1    1.000000
    0.000000    0.000000    0.000000  0  1  1    1.000000
    0.000000    0.000000    0.000000  1  1  1    1.000000
    0.000000    0.000000    0.000000  1  1  1    1.000000
    0.000000    0.000000    0.000000  1  2  1    1.000000
    0.000000    0.000000    0.000000  1  2  1    1.000000
    0.000000    0.000000    0.000000  1  3  1    1.000000
    0.000000    0.000000    0.000000  1  3  1    1.000000
    0.000000    0.000000    0.000000  2  1  1    1.000000
    0.000000    0.000000    0.000000  2  1  1    1.000000
    0.000000    0.000000    0.000000  2  2  1    1.000000
    0.000000    0.000000    0.000000  2  2  1    1.000000
    0.000000    0.000000    0.000000  2  3  1    1.000000
    0.000000    0.000000    0.000000  2  3  1    1.000000
    0.000000    0.000000    0.000000  2  4  1    1.000000
    0.000000    0.000000    0.000000  2  4  1    1.000000
    0.000000    0.000000    0.000000  2  5  1    1.000000
    0.000000    0.000000    0.000000  2  5  1    1.000000
    0.500000    0.500000    0.692593  0  1  1    1.000000
    0.500000    0.500000    0.692593  0  1  1    1.000000
    0.500000    0.500000    0.692593  1  1  1    1.000000
    0.500000    0.500000    0.692593  1  1  1    1.000000
    0.500000    0.500000    0.692593  1  2  1    1.000000
    0.500000    0.500000    0.692593  1  2  1    1.000000
    0.500000    0.500000    0.692593  1  3  1    1.000000
    0.500000    0.500000    0.692593  1  3  1    1.000000
    0.500000    0.500000    0.692593  2  1  1    1.000000
    0.500000    0.500000    0.692593  2  1  1    1.000000
    0.500000    0.500000    0.692593  2  2  1    1.000000
    0.500000    0.500000    0.692593  2  2  1    1.000000
    0.500000    0.500000    0.692593  2  3  1    1.000000
    0.500000    0.500000    0.692593  2  3  1    1.000000
    0.500000    0.500000    0.692593  2  4  1    1.000000
    0.500000    0.500000    0.692593  2  4  1    1.000000
    0.500000    0.500000    0.692593  2  5  1    1.000000
    0.500000    0.500000    0.692593  2  5  1    1.000000
 
  Reading data about k-point neighbours 
 
  All neighbours are found 
 
  Opening pp-files 
 
 
  --------------------------
  *** Compute  A projections
  --------------------------
 
  AMN: iknum =       60
       1           1           0
           1           1   1.52840971349426     
           1           0
           1           2   1.52840971349426     
           2           1
           1           3   1.02901839108919     
           2           1
           1           4   1.02901839108919     
           3           1
           1           5  0.770952467928981     
           3           1
           1           6  0.770952467928981     
           4           1
           1           7  0.770952467928983     
           4           1
           1           8  0.770952467928983     
           5           2
           1           9   1.16888247711573     
           5           2
           1          10   1.16888247711573     
           6           2
           1          11  0.840809330708405     
           6           2
           1          12  0.840809330708405     
           7           2
           1          13  0.840809330708405     
           7           2
           1          14  0.840809330708405     
           8           2
           1          15   1.15236766844100     
           8           2
           1          16   1.15236766844100     
           9           2
           1          17  0.779190403260571     
           9           2
           1          18  0.779190403260571     
           1           0
           1          19   1.52840971349426     
           1           0
           1          20   1.52840971349426     
           2           1
           1          21   1.02901839108919     
           2           1
           1          22   1.02901839108919     
           3           1
           1          23  0.770952467928981     
           3           1
           1          24  0.770952467928981     
           4           1
           1          25  0.770952467928983     
           4           1
           1          26  0.770952467928983     
           5           2
           1          27   1.16888247711573     
           5           2
           1          28   1.16888247711573     
           6           2
           1          29  0.840809330708405     
           6           2
           1          30  0.840809330708405     
           7           2
           1          31  0.840809330708405     
           7           2
           1          32  0.840809330708405     
           8           2
           1          33   1.15236766844100     
           8           2
           1          34   1.15236766844100     
           9           2
           1          35  0.779190403260571     
           9           2
           1          36  0.779190403260571     
       2           1           0
           2           1   1.47792456644251     
           1           0
           2           2   1.47792456644251     
           2           1
           2           3   1.09583254997954     
           2           1
           2           4   1.09583254997954     
           3           1
           2           5  0.770028113111172     
           3           1
           2           6  0.770028113111172     
           4           1
           2           7  0.770028113111175     
           4           1
           2           8  0.770028113111175     
           5           2
           2           9   1.14855023448913     
           5           2
           2          10   1.14855023448913     
           6           2
           2          11  0.845083817001796     
           6           2
           2          12  0.845083817001796     
           7           2
           2          13  0.845083817001796     
           7           2
           2          14  0.845083817001796     
           8           2
           2          15   1.15034798663539     
           8           2
           2          16   1.15034798663539     
           9           2
           2          17  0.778862818596775     
           9           2
           2          18  0.778862818596775     
           1           0
           2          19   1.47792456644251     
           1           0
           2          20   1.47792456644251     
           2           1
           2          21   1.09583254997954     
           2           1
           2          22   1.09583254997954     
           3           1
           2          23  0.770028113111172     
           3           1
           2          24  0.770028113111172     
           4           1
           2          25  0.770028113111174     
           4           1
           2          26  0.770028113111174     
           5           2
           2          27   1.14855023448913     
           5           2
           2          28   1.14855023448913     
           6           2
           2          29  0.845083817001796     
           6           2
           2          30  0.845083817001796     
           7           2
           2          31  0.845083817001796     
           7           2
           2          32  0.845083817001796     
           8           2
           2          33   1.15034798663539     
           8           2
           2          34   1.15034798663539     
           9           2
           2          35  0.778862818596775     
           9           2
           2          36  0.778862818596775     
       3           1           0
           3           1   1.37825102860906     
           1           0
           3           2   1.37825102860906     
           2           1
           3           3   1.22654747691360     
           2           1
           3           4   1.22654747691360     
           3           1
           3           5  0.768156489759517     
           3           1
           3           6  0.768156489759517     
           4           1
           3           7  0.768156489759519     
           4           1
           3           8  0.768156489759519     
           5           2
           3           9   1.10880661300446     
           5           2
           3          10   1.10880661300446     
           6           2
           3          11  0.852837943035629     
           6           2
           3          12  0.852837943035629     
           7           2
           3          13  0.852837943035629     
           7           2
           3          14  0.852837943035629     
           8           2
           3          15   1.14636932709211     
           8           2
           3          16   1.14636932709211     
           9           2
           3          17  0.778328232998482     
           9           2
           3          18  0.778328232998482     
           1           0
           3          19   1.37825102860906     
           1           0
           3          20   1.37825102860906     
           2           1
           3          21   1.22654747691360     
           2           1
           3          22   1.22654747691360     
           3           1
           3          23  0.768156489759517     
           3           1
           3          24  0.768156489759517     
           4           1
           3          25  0.768156489759519     
           4           1
           3          26  0.768156489759519     
           5           2
           3          27   1.10880661300446     
           5           2
           3          28   1.10880661300446     
           6           2
           3          29  0.852837943035629     
           6           2
           3          30  0.852837943035629     
           7           2
           3          31  0.852837943035629     
           7           2
           3          32  0.852837943035629     
           8           2
           3          33   1.14636932709211     
           8           2
           3          34   1.14636932709211     
           9           2
           3          35  0.778328232998482     
           9           2
           3          36  0.778328232998482     
       4           1           0
           4           1   1.32905967653069     
           1           0
           4           2   1.32905967653069     
           2           1
           4           3   1.29089654557211     
           2           1
           4           4   1.29089654557211     
           3           1
           4           5  0.767215380008016     
           3           1
           4           6  0.767215380008016     
           4           1
           4           7  0.767215380008019     
           4           1
           4           8  0.767215380008019     
           5           2
           4           9   1.09066743674927     
           5           2
           4          10   1.09066743674927     
           6           2
           4          11  0.857260839098313     
           6           2
           4          12  0.857260839098313     
           7           2
           4          13  0.857260839098313     
           7           2
           4          14  0.857260839098313     
           8           2
           4          15   1.14387047206336     
           8           2
           4          16   1.14387047206336     
           9           2
           4          17  0.778246270457833     
           9           2
           4          18  0.778246270457833     
           1           0
           4          19   1.32905967653069     
           1           0
           4          20   1.32905967653069     
           2           1
           4          21   1.29089654557211     
           2           1
           4          22   1.29089654557211     
           3           1
           4          23  0.767215380008016     
           3           1
           4          24  0.767215380008016     
           4           1
           4          25  0.767215380008019     
           4           1
           4          26  0.767215380008019     
           5           2
           4          27   1.09066743674927     
           5           2
           4          28   1.09066743674927     
           6           2
           4          29  0.857260839098313     
           6           2
           4          30  0.857260839098313     
           7           2
           4          31  0.857260839098312     
           7           2
           4          32  0.857260839098312     
           8           2
           4          33   1.14387047206336     
           8           2
           4          34   1.14387047206336     
           9           2
           4          35  0.778246270457833     
           9           2
           4          36  0.778246270457833     
       5           1           0
           5           1   1.45611080406661     
           1           0
           5           2   1.45611080406661     
           2           1
           5           3   1.01550266920506     
           2           1
           5           4   1.01550266920506     
           3           1
           5           5  0.766746556724677     
           3           1
           5           6  0.766746556724677     
           4           1
           5           7  0.851954111044670     
           4           1
           5           8  0.851954111044670     
           5           2
           5           9   1.14751096746759     
           5           2
           5          10   1.14751096746759     
           6           2
           5          11  0.838637600234518     
           6           2
           5          12  0.838637600234518     
           7           2
           5          13  0.871296095365338     
           7           2
           5          14  0.871296095365338     
           8           2
           5          15   1.13544703717726     
           8           2
           5          16   1.13544703717726     
           9           2
           5          17  0.792921926685753     
           9           2
           5          18  0.792921926685753     
           1           0
           5          19   1.45611080406661     
           1           0
           5          20   1.45611080406661     
           2           1
           5          21   1.01550266920506     
           2           1
           5          22   1.01550266920506     
           3           1
           5          23  0.766746556724677     
           3           1
           5          24  0.766746556724677     
           4           1
           5          25  0.851954111044670     
           4           1
           5          26  0.851954111044670     
           5           2
           5          27   1.14751096746759     
           5           2
           5          28   1.14751096746759     
           6           2
           5          29  0.838637600234518     
           6           2
           5          30  0.838637600234518     
           7           2
           5          31  0.871296095365338     
           7           2
           5          32  0.871296095365338     
           8           2
           5          33   1.13544703717726     
           8           2
           5          34   1.13544703717726     
           9           2
           5          35  0.792921926685753     
           9           2
           5          36  0.792921926685753     
       6           1           0
           6           1   1.41068012348143     
           1           0
           6           2   1.41068012348143     
           2           1
           6           3   1.07733019509665     
           2           1
           6           4   1.07733019509665     
           3           1
           6           5  0.765855317626822     
           3           1
           6           6  0.765855317626822     
           4           1
           6           7  0.848277274704127     
           4           1
           6           8  0.848277274704127     
           5           2
           6           9   1.12582542786265     
           5           2
           6          10   1.12582542786265     
           6           2
           6          11  0.842422339731173     
           6           2
           6          12  0.842422339731173     
           7           2
           6          13  0.879869008488150     
           7           2
           6          14  0.879869008488150     
           8           2
           6          15   1.13328318094769     
           8           2
           6          16   1.13328318094769     
           9           2
           6          17  0.792752882303367     
           9           2
           6          18  0.792752882303367     
           1           0
           6          19   1.41068012348143     
           1           0
           6          20   1.41068012348143     
           2           1
           6          21   1.07733019509665     
           2           1
           6          22   1.07733019509665     
           3           1
           6          23  0.765855317626823     
           3           1
           6          24  0.765855317626823     
           4           1
           6          25  0.848277274704127     
           4           1
           6          26  0.848277274704127     
           5           2
           6          27   1.12582542786265     
           5           2
           6          28   1.12582542786265     
           6           2
           6          29  0.842422339731174     
           6           2
           6          30  0.842422339731174     
           7           2
           6          31  0.879869008488150     
           7           2
           6          32  0.879869008488150     
           8           2
           6          33   1.13328318094769     
           8           2
           6          34   1.13328318094769     
           9           2
           6          35  0.792752882303367     
           9           2
           6          36  0.792752882303367     
       7           1           0
           7           1   1.32091518325458     
           1           0
           7           2   1.32091518325458     
           2           1
           7           3   1.19875741693315     
           2           1
           7           4   1.19875741693315     
           3           1
           7           5  0.764122099863596     
           3           1
           7           6  0.764122099863596     
           4           1
           7           7  0.841007371463986     
           4           1
           7           8  0.841007371463986     
           5           2
           7           9   1.08386685349139     
           5           2
           7          10   1.08386685349139     
           6           2
           7          11  0.850374966745925     
           6           2
           7          12  0.850374966745925     
           7           2
           7          13  0.896968040938267     
           7           2
           7          14  0.896968040938267     
           8           2
           7          15   1.12912354269636     
           8           2
           7          16   1.12912354269636     
           9           2
           7          17  0.792455472957683     
           9           2
           7          18  0.792455472957683     
           1           0
           7          19   1.32091518325458     
           1           0
           7          20   1.32091518325458     
           2           1
           7          21   1.19875741693315     
           2           1
           7          22   1.19875741693315     
           3           1
           7          23  0.764122099863596     
           3           1
           7          24  0.764122099863596     
           4           1
           7          25  0.841007371463986     
           4           1
           7          26  0.841007371463986     
           5           2
           7          27   1.08386685349139     
           5           2
           7          28   1.08386685349139     
           6           2
           7          29  0.850374966745925     
           6           2
           7          30  0.850374966745925     
           7           2
           7          31  0.896968040938267     
           7           2
           7          32  0.896968040938267     
           8           2
           7          33   1.12912354269636     
           8           2
           7          34   1.12912354269636     
           9           2
           7          35  0.792455472957683     
           9           2
           7          36  0.792455472957683     
       8           1           0
           8           1   1.27657661831586     
           1           0
           8           2   1.27657661831586     
           2           1
           8           3   1.25847911232329     
           2           1
           8           4   1.25847911232329     
           3           1
           8           5  0.763221118329508     
           3           1
           8           6  0.763221118329508     
           4           1
           8           7  0.837353239867191     
           4           1
           8           8  0.837353239867191     
           5           2
           8           9   1.06419895502114     
           5           2
           8          10   1.06419895502114     
           6           2
           8          11  0.854422653690666     
           6           2
           8          12  0.854422653690666     
           7           2
           8          13  0.905461861758548     
           7           2
           8          14  0.905461861758548     
           8           2
           8          15   1.12691203376308     
           8           2
           8          16   1.12691203376308     
           9           2
           8          17  0.792026848683572     
           9           2
           8          18  0.792026848683572     
           1           0
           8          19   1.27657661831586     
           1           0
           8          20   1.27657661831586     
           2           1
           8          21   1.25847911232329     
           2           1
           8          22   1.25847911232329     
           3           1
           8          23  0.763221118329507     
           3           1
           8          24  0.763221118329507     
           4           1
           8          25  0.837353239867191     
           4           1
           8          26  0.837353239867191     
           5           2
           8          27   1.06419895502114     
           5           2
           8          28   1.06419895502114     
           6           2
           8          29  0.854422653690666     
           6           2
           8          30  0.854422653690666     
           7           2
           8          31  0.905461861758548     
           7           2
           8          32  0.905461861758548     
           8           2
           8          33   1.12691203376308     
           8           2
           8          34   1.12691203376308     
           9           2
           8          35  0.792026848683572     
           9           2
           8          36  0.792026848683572     
       9           1           0
           9           1   1.28068887133802     
           1           0
           9           2   1.28068887133802     
           2           1
           9           3  0.981469119426936     
           2           1
           9           4  0.981469119426936     
           3           1
           9           5  0.756190485534702     
           3           1
           9           6  0.756190485534702     
           4           1
           9           7   1.04404813258066     
           4           1
           9           8   1.04404813258066     
           5           2
           9           9   1.09559004885773     
           5           2
           9          10   1.09559004885773     
           6           2
           9          11  0.833134000328242     
           6           2
           9          12  0.833134000328242     
           7           2
           9          13  0.947420027957406     
           7           2
           9          14  0.947420027957406     
           8           2
           9          15   1.09871939563629     
           8           2
           9          16   1.09871939563629     
           9           2
           9          17  0.828452566368167     
           9           2
           9          18  0.828452566368167     
           1           0
           9          19   1.28068887133802     
           1           0
           9          20   1.28068887133802     
           2           1
           9          21  0.981469119426936     
           2           1
           9          22  0.981469119426936     
           3           1
           9          23  0.756190485534702     
           3           1
           9          24  0.756190485534702     
           4           1
           9          25   1.04404813258066     
           4           1
           9          26   1.04404813258066     
           5           2
           9          27   1.09559004885774     
           5           2
           9          28   1.09559004885774     
           6           2
           9          29  0.833134000328243     
           6           2
           9          30  0.833134000328243     
           7           2
           9          31  0.947420027957407     
           7           2
           9          32  0.947420027957407     
           8           2
           9          33   1.09871939563629     
           8           2
           9          34   1.09871939563629     
           9           2
           9          35  0.828452566368167     
           9           2
           9          36  0.828452566368167     
      10
           1           0
          10           1   1.24705567697693     
           1           0
          10           2   1.24705567697693     
           2           1
          10           3   1.03140954863515     
           2           1
          10           4   1.03140954863515     
           3           1
          10           5  0.755382132845192     
           3           1
          10           6  0.755382132845192     
           4           1
          10           7   1.03465056125559     
           4           1
          10           8   1.03465056125559     
           5           2
          10           9   1.07117186000994     
           5           2
          10          10   1.07117186000994     
           6           2
          10          11  0.836342188023313     
           6           2
          10          12  0.836342188023313     
           7           2
          10          13  0.966049421067916     
           7           2
          10          14  0.966049421067916     
           8           2
          10          15   1.09583569876289     
           8           2
          10          16   1.09583569876289     
           9           2
          10          17  0.828103016965389     
           9           2
          10          18  0.828103016965389     
           1           0
          10          19   1.24705567697693     
           1           0
          10          20   1.24705567697693     
           2           1
          10          21   1.03140954863515     
           2           1
          10          22   1.03140954863515     
           3           1
          10          23  0.755382132845192     
           3           1
          10          24  0.755382132845192     
           4           1
          10          25   1.03465056125559     
           4           1
          10          26   1.03465056125559     
           5           2
          10          27   1.07117186000994     
           5           2
          10          28   1.07117186000994     
           6           2
          10          29  0.836342188023313     
           6           2
          10          30  0.836342188023313     
           7           2
          10          31  0.966049421067916     
           7           2
          10          32  0.966049421067916     
           8           2
          10          33   1.09583569876289     
           8           2
          10          34   1.09583569876289     
           9           2
          10          35  0.828103016965389     
           9           2
          10          36  0.828103016965389     
      11           1           0
          11           1   1.18045734254327     
           1           0
          11           2   1.18045734254327     
           2           1
          11           3   1.13002266755092     
           2           1
          11           4   1.13002266755092     
           3           1
          11           5  0.753889009075769     
           3           1
          11           6  0.753889009075769     
           4           1
          11           7   1.01600992498437     
           4           1
          11           8   1.01600992498437     
           5           2
          11           9   1.02398815356084     
           5           2
          11          10   1.02398815356084     
           6           2
          11          11  0.843623944830938     
           6           2
          11          12  0.843623944830938     
           7           2
          11          13   1.00322837719675     
           7           2
          11          14   1.00322837719675     
           8           2
          11          15   1.09021046764517     
           8           2
          11          16   1.09021046764517     
           9           2
          11          17  0.827562002737474     
           9           2
          11          18  0.827562002737474     
           1           0
          11          19   1.18045734254327     
           1           0
          11          20   1.18045734254327     
           2           1
          11          21   1.13002266755092     
           2           1
          11          22   1.13002266755092     
           3           1
          11          23  0.753889009075769     
           3           1
          11          24  0.753889009075769     
           4           1
          11          25   1.01600992498437     
           4           1
          11          26   1.01600992498437     
           5           2
          11          27   1.02398815356084     
           5           2
          11          28   1.02398815356084     
           6           2
          11          29  0.843623944830938     
           6           2
          11          30  0.843623944830938     
           7           2
          11          31   1.00322837719675     
           7           2
          11          32   1.00322837719675     
           8           2
          11          33   1.09021046764517     
           8           2
          11          34   1.09021046764517     
           9           2
          11          35  0.827562002737473     
           9           2
          11          36  0.827562002737473     
      12           1           0
          12           1   1.14748954532503     
           1           0
          12           2   1.14748954532503     
           2           1
          12           3   1.17862187344363     
           2           1
          12           4   1.17862187344363     
           3           1
          12           5  0.753145560647235     
           3           1
          12           6  0.753145560647235     
           4           1
          12           7   1.00682541757716     
           4           1
          12           8   1.00682541757716     
           5           2
          12           9   1.00106495637228     
           5           2
          12          10   1.00106495637228     
           6           2
          12          11  0.847298096509125     
           6           2
          12          12  0.847298096509125     
           7           2
          12          13   1.02172902064954     
           7           2
          12          14   1.02172902064954     
           8           2
          12          15   1.08760564527215     
           8           2
          12          16   1.08760564527215     
           9           2
          12          17  0.827347736416373     
           9           2
          12          18  0.827347736416373     
           1           0
          12          19   1.14748954532503     
           1           0
          12          20   1.14748954532503     
           2           1
          12          21   1.17862187344363     
           2           1
          12          22   1.17862187344363     
           3           1
          12          23  0.753145560647235     
           3           1
          12          24  0.753145560647235     
           4           1
          12          25   1.00682541757716     
           4           1
          12          26   1.00682541757716     
           5           2
          12          27   1.00106495637228     
           5           2
          12          28   1.00106495637228     
           6           2
          12          29  0.847298096509125     
           6           2
          12          30  0.847298096509125     
           7           2
          12          31   1.02172902064954     
           7           2
          12          32   1.02172902064954     
           8           2
          12          33   1.08760564527215     
           8           2
          12          34   1.08760564527215     
           9           2
          12          35  0.827347736416373     
           9           2
          12          36  0.827347736416373     
      13           1           0
          13           1   1.09390211926349     
           1           0
          13           2   1.09390211926349     
           2           1
          13           3  0.943232756235182     
           2           1
          13           4  0.943232756235182     
           3           1
          13           5  0.744195996924234     
           3           1
          13           6  0.744195996924234     
           4           1
          13           7   1.24072391514968     
           4           1
          13           8   1.24072391514968     
           5           2
          13           9   1.04066141113478     
           5           2
          13          10   1.04066141113478     
           6           2
          13          11  0.826415711682946     
           6           2
          13          12  0.826415711682946     
           7           2
          13          13   1.03189884962378     
           7           2
          13          14   1.03189884962378     
           8           2
          13          15   1.06587049946324     
           8           2
          13          16   1.06587049946324     
           9           2
          13          17  0.868849354543445     
           9           2
          13          18  0.868849354543445     
           1           0
          13          19   1.09390211926349     
           1           0
          13          20   1.09390211926349     
           2           1
          13          21  0.943232756235181     
           2           1
          13          22  0.943232756235181     
           3           1
          13          23  0.744195996924234     
           3           1
          13          24  0.744195996924234     
           4           1
          13          25   1.24072391514968     
           4           1
          13          26   1.24072391514968     
           5           2
          13          27   1.04066141113477     
           5           2
          13          28   1.04066141113477     
           6           2
          13          29  0.826415711682946     
           6           2
          13          30  0.826415711682946     
           7           2
          13          31   1.03189884962378     
           7           2
          13          32   1.03189884962378     
           8           2
          13          33   1.06587049946324     
           8           2
          13          34   1.06587049946324     
           9           2
          13          35  0.868849354543445     
           9           2
          13          36  0.868849354543445     
      14           1           0
          14           1   1.07205555297394     
           1           0
          14           2   1.07205555297394     
           2           1
          14           3  0.980699702837741     
           2           1
          14           4  0.980699702837741     
           3           1
          14           5  0.743593720110782     
           3           1
          14           6  0.743593720110782     
           4           1
          14           7   1.22698005058083     
           4           1
          14           8   1.22698005058083     
           5           2
          14           9   1.01409159204547     
           5           2
          14          10   1.01409159204547     
           6           2
          14          11  0.829678549393263     
           6           2
          14          12  0.829678549393263     
           7           2
          14          13   1.06032116358615     
           7           2
          14          14   1.06032116358615     
           8           2
          14          15   1.06193845384961     
           8           2
          14          16   1.06193845384961     
           9           2
          14          17  0.868578813978740     
           9           2
          14          18  0.868578813978740     
           1           0
          14          19   1.07205555297394     
           1           0
          14          20   1.07205555297394     
           2           1
          14          21  0.980699702837741     
           2           1
          14          22  0.980699702837741     
           3           1
          14          23  0.743593720110782     
           3           1
          14          24  0.743593720110782     
           4           1
          14          25   1.22698005058083     
           4           1
          14          26   1.22698005058083     
           5           2
          14          27   1.01409159204547     
           5           2
          14          28   1.01409159204547     
           6           2
          14          29  0.829678549393263     
           6           2
          14          30  0.829678549393263     
           7           2
          14          31   1.06032116358615     
           7           2
          14          32   1.06032116358615     
           8           2
          14          33   1.06193845384961     
           8           2
          14          34   1.06193845384961     
           9           2
          14          35  0.868578813978740     
           9           2
          14          36  0.868578813978740     
      15           1           0
          15           1   1.02866726374030     
           1           0
          15           2   1.02866726374030     
           2           1
          15           3   1.05493172446222     
           2           1
          15           4   1.05493172446222     
           3           1
          15           5  0.742258398654230     
           3           1
          15           6  0.742258398654230     
           4           1
          15           7   1.19953830565024     
           4           1
          15           8   1.19953830565024     
           5           2
          15           9  0.961829891335929     
           5           2
          15          10  0.961829891335929     
           6           2
          15          11  0.835894378373380     
           6           2
          15          12  0.835894378373380     
           7           2
          15          13   1.11669830673203     
           7           2
          15          14   1.11669830673203     
           8           2
          15          15   1.05369776388069     
           8           2
          15          16   1.05369776388069     
           9           2
          15          17  0.867372130705869     
           9           2
          15          18  0.867372130705869     
           1           0
          15          19   1.02866726374030     
           1           0
          15          20   1.02866726374030     
           2           1
          15          21   1.05493172446222     
           2           1
          15          22   1.05493172446222     
           3           1
          15          23  0.742258398654229     
           3           1
          15          24  0.742258398654229     
           4           1
          15          25   1.19953830565024     
           4           1
          15          26   1.19953830565024     
           5           2
          15          27  0.961829891335929     
           5           2
          15          28  0.961829891335929     
           6           2
          15          29  0.835894378373380     
           6           2
          15          30  0.835894378373380     
           7           2
          15          31   1.11669830673203     
           7           2
          15          32   1.11669830673203     
           8           2
          15          33   1.05369776388069     
           8           2
          15          34   1.05369776388069     
           9           2
          15          35  0.867372130705869     
           9           2
          15          36  0.867372130705869     
      16           1           0
          16           1   1.00712552281301     
           1           0
          16           2   1.00712552281301     
           2           1
          16           3   1.09163558518860     
           2           1
          16           4   1.09163558518860     
           3           1
          16           5  0.741658910504179     
           3           1
          16           6  0.741658910504179     
           4           1
          16           7   1.18591916736188     
           4           1
          16           8   1.18591916736188     
           5           2
          16           9  0.935881182980587     
           5           2
          16          10  0.935881182980587     
           6           2
          16          11  0.839185272599873     
           6           2
          16          12  0.839185272599873     
           7           2
          16          13   1.14456982436761     
           7           2
          16          14   1.14456982436761     
           8           2
          16          15   1.04976127138552     
           8           2
          16          16   1.04976127138552     
           9           2
          16          17  0.866983203712813     
           9           2
          16          18  0.866983203712813     
           1           0
          16          19   1.00712552281301     
           1           0
          16          20   1.00712552281301     
           2           1
          16          21   1.09163558518860     
           2           1
          16          22   1.09163558518860     
           3           1
          16          23  0.741658910504179     
           3           1
          16          24  0.741658910504179     
           4           1
          16          25   1.18591916736188     
           4           1
          16          26   1.18591916736188     
           5           2
          16          27  0.935881182980586     
           5           2
          16          28  0.935881182980586     
           6           2
          16          29  0.839185272599873     
           6           2
          16          30  0.839185272599873     
           7           2
          16          31   1.14456982436761     
           7           2
          16          32   1.14456982436761     
           8           2
          16          33   1.04976127138552     
           8           2
          16          34   1.04976127138552     
           9           2
          16          35  0.866983203712813     
           9           2
          16          36  0.866983203712813     
      17           1           0
          17           1  0.978885268526335     
           1           0
          17           2  0.978885268526335     
           2           1
          17           3  0.918543275962468     
           2           1
          17           4  0.918543275962468     
           3           1
          17           5  0.736529942480345     
           3           1
          17           6  0.736529942480345     
           4           1
          17           7   1.35743980745177     
           4           1
          17           8   1.35743980745177     
           5           2
          17           9   1.00714641524561     
           5           2
          17          10   1.00714641524561     
           6           2
          17          11  0.822243048160982     
           6           2
          17          12  0.822243048160982     
           7           2
          17          13   1.08563158175525     
           7           2
          17          14   1.08563158175525     
           8           2
          17          15   1.04957544119957     
           8           2
          17          16   1.04957544119957     
           9           2
          17          17  0.895572812516075     
           9           2
          17          18  0.895572812516075     
           1           0
          17          19  0.978885268526335     
           1           0
          17          20  0.978885268526335     
           2           1
          17          21  0.918543275962468     
           2           1
          17          22  0.918543275962468     
           3           1
          17          23  0.736529942480344     
           3           1
          17          24  0.736529942480344     
           4           1
          17          25   1.35743980745177     
           4           1
          17          26   1.35743980745177     
           5           2
          17          27   1.00714641524561     
           5           2
          17          28   1.00714641524561     
           6           2
          17          29  0.822243048160982     
           6           2
          17          30  0.822243048160982     
           7           2
          17          31   1.08563158175525     
           7           2
          17          32   1.08563158175525     
           8           2
          17          33   1.04957544119957     
           8           2
          17          34   1.04957544119957     
           9           2
          17          35  0.895572812516075     
           9           2
          17          36  0.895572812516075     
      18           1           0
          18           1  0.963866186273057     
           1           0
          18           2  0.963866186273057     
           2           1
          18           3  0.948418138025787     
           2           1
          18           4  0.948418138025787     
           3           1
          18           5  0.735965602315189     
           3           1
          18           6  0.735965602315189     
           4           1
          18           7   1.34188122697970     
           4           1
          18           8   1.34188122697970     
           5           2
          18           9  0.979521285068523     
           5           2
          18          10  0.979521285068523     
           6           2
          18          11  0.825471528522648     
           6           2
          18          12  0.825471528522648     
           7           2
          18          13   1.11957471067153     
           7           2
          18          14   1.11957471067153     
           8           2
          18          15   1.04440746597704     
           8           2
          18          16   1.04440746597704     
           9           2
          18          17  0.894953554443879     
           9           2
          18          18  0.894953554443879     
           1           0
          18          19  0.963866186273057     
           1           0
          18          20  0.963866186273057     
           2           1
          18          21  0.948418138025787     
           2           1
          18          22  0.948418138025787     
           3           1
          18          23  0.735965602315189     
           3           1
          18          24  0.735965602315189     
           4           1
          18          25   1.34188122697970     
           4           1
          18          26   1.34188122697970     
           5           2
          18          27  0.979521285068523     
           5           2
          18          28  0.979521285068523     
           6           2
          18          29  0.825471528522648     
           6           2
          18          30  0.825471528522648     
           7           2
          18          31   1.11957471067153     
           7           2
          18          32   1.11957471067153     
           8           2
          18          33   1.04440746597704     
           8           2
          18          34   1.04440746597704     
           9           2
          18          35  0.894953554443879     
           9           2
          18          36  0.894953554443879     
      19           1           0
          19           1  0.933959635390425     
           1           0
          19           2  0.933959635390425     
           2           1
          19           3   1.00756770074375     
           2           1
          19           4   1.00756770074375     
           3           1
          19           5  0.734767994441413     
           3           1
          19           6  0.734767994441413     
           4           1
          19           7   1.31084121556131     
           4           1
          19           8   1.31084121556131     
           5           2
          19           9  0.924343511489607     
           5           2
          19          10  0.924343511489607     
           6           2
          19          11  0.831007852760506     
           6           2
          19          12  0.831007852760506     
           7           2
          19          13   1.18642883581837     
           7           2
          19          14   1.18642883581837     
           8           2
          19          15   1.03403616910269     
           8           2
          19          16   1.03403616910269     
           9           2
          19          17  0.893593673260413     
           9           2
          19          18  0.893593673260413     
           1           0
          19          19  0.933959635390425     
           1           0
          19          20  0.933959635390425     
           2           1
          19          21   1.00756770074375     
           2           1
          19          22   1.00756770074375     
           3           1
          19          23  0.734767994441413     
           3           1
          19          24  0.734767994441413     
           4           1
          19          25   1.31084121556131     
           4           1
          19          26   1.31084121556131     
           5           2
          19          27  0.924343511489607     
           5           2
          19          28  0.924343511489607     
           6           2
          19          29  0.831007852760506     
           6           2
          19          30  0.831007852760506     
           7           2
          19          31   1.18642883581837     
           7           2
          19          32   1.18642883581837     
           8           2
          19          33   1.03403616910269     
           8           2
          19          34   1.03403616910269     
           9           2
          19          35  0.893593673260413     
           9           2
          19          36  0.893593673260413     
      20
           1           0
          20           1  0.919072768818226     
           1           0
          20           2  0.919072768818226     
           2           1
          20           3   1.03697833538872     
           2           1
          20           4   1.03697833538872     
           3           1
          20           5  0.734151348201213     
           3           1
          20           6  0.734151348201213     
           4           1
          20           7   1.29536720951336     
           4           1
          20           8   1.29536720951336     
           5           2
          20           9  0.896971960029089     
           5           2
          20          10  0.896971960029089     
           6           2
          20          11  0.833769271348147     
           6           2
          20          12  0.833769271348147     
           7           2
          20          13   1.21980395474649     
           7           2
          20          14   1.21980395474649     
           8           2
          20          15   1.02893669681386     
           8           2
          20          16   1.02893669681386     
           9           2
          20          17  0.892632472608039     
           9           2
          20          18  0.892632472608039     
           1           0
          20          19  0.919072768818226     
           1           0
          20          20  0.919072768818226     
           2           1
          20          21   1.03697833538872     
           2           1
          20          22   1.03697833538872     
           3           1
          20          23  0.734151348201213     
           3           1
          20          24  0.734151348201213     
           4           1
          20          25   1.29536720951336     
           4           1
          20          26   1.29536720951336     
           5           2
          20          27  0.896971960029089     
           5           2
          20          28  0.896971960029089     
           6           2
          20          29  0.833769271348147     
           6           2
          20          30  0.833769271348147     
           7           2
          20          31   1.21980395474649     
           7           2
          20          32   1.21980395474649     
           8           2
          20          33   1.02893669681386     
           8           2
          20          34   1.02893669681386     
           9           2
          20          35  0.892632472608039     
           9           2
          20          36  0.892632472608039     
      21           1           0
          21           1   1.38983562529592     
           1           0
          21           2   1.38983562529592     
           2           1
          21           3   1.00258281523124     
           2           1
          21           4   1.00258281523124     
           3           1
          21           5  0.843580101996387     
           3           1
          21           6  0.843580101996387     
           4           1
          21           7  0.843580101996390     
           4           1
          21           8  0.843580101996390     
           5           2
          21           9   1.12803307903114     
           5           2
          21          10   1.12803307903114     
           6           2
          21          11  0.868177030139798     
           6           2
          21          12  0.868177030139798     
           7           2
          21          13  0.868177030139798     
           7           2
          21          14  0.868177030139798     
           8           2
          21          15   1.11562341138938     
           8           2
          21          16   1.11562341138938     
           9           2
          21          17  0.812213918945502     
           9           2
          21          18  0.812213918945502     
           1           0
          21          19   1.38983562529592     
           1           0
          21          20   1.38983562529592     
           2           1
          21          21   1.00258281523125     
           2           1
          21          22   1.00258281523125     
           3           1
          21          23  0.843580101996387     
           3           1
          21          24  0.843580101996387     
           4           1
          21          25  0.843580101996390     
           4           1
          21          26  0.843580101996390     
           5           2
          21          27   1.12803307903114     
           5           2
          21          28   1.12803307903114     
           6           2
          21          29  0.868177030139798     
           6           2
          21          30  0.868177030139798     
           7           2
          21          31  0.868177030139798     
           7           2
          21          32  0.868177030139798     
           8           2
          21          33   1.11562341138938     
           8           2
          21          34   1.11562341138938     
           9           2
          21          35  0.812213918945502     
           9           2
          21          36  0.812213918945502     
      22           1           0
          22           1   1.34888430939712     
           1           0
          22           2   1.34888430939712     
           2           1
          22           3   1.05994212746001     
           2           1
          22           4   1.05994212746001     
           3           1
          22           5  0.840177891274380     
           3           1
          22           6  0.840177891274380     
           4           1
          22           7  0.840177891274382     
           4           1
          22           8  0.840177891274382     
           5           2
          22           9   1.10515518544864     
           5           2
          22          10   1.10515518544864     
           6           2
          22          11  0.876272845184387     
           6           2
          22          12  0.876272845184387     
           7           2
          22          13  0.876272845184387     
           7           2
          22          14  0.876272845184387     
           8           2
          22          15   1.11331461926729     
           8           2
          22          16   1.11331461926729     
           9           2
          22          17  0.811768739429683     
           9           2
          22          18  0.811768739429683     
           1           0
          22          19   1.34888430939712     
           1           0
          22          20   1.34888430939712     
           2           1
          22          21   1.05994212746001     
           2           1
          22          22   1.05994212746001     
           3           1
          22          23  0.840177891274380     
           3           1
          22          24  0.840177891274380     
           4           1
          22          25  0.840177891274382     
           4           1
          22          26  0.840177891274382     
           5           2
          22          27   1.10515518544864     
           5           2
          22          28   1.10515518544864     
           6           2
          22          29  0.876272845184387     
           6           2
          22          30  0.876272845184387     
           7           2
          22          31  0.876272845184387     
           7           2
          22          32  0.876272845184387     
           8           2
          22          33   1.11331461926729     
           8           2
          22          34   1.11331461926729     
           9           2
          22          35  0.811768739429683     
           9           2
          22          36  0.811768739429683     
      23           1           0
          23           1   1.26790904218095     
           1           0
          23           2   1.26790904218095     
           2           1
          23           3   1.17276232807784     
           2           1
          23           4   1.17276232807784     
           3           1
          23           5  0.833484080976924     
           3           1
          23           6  0.833484080976924     
           4           1
          23           7  0.833484080976927     
           4           1
          23           8  0.833484080976927     
           5           2
          23           9   1.06131084740586     
           5           2
          23          10   1.06131084740586     
           6           2
          23          11  0.892295531493149     
           6           2
          23          12  0.892295531493149     
           7           2
          23          13  0.892295531493148     
           7           2
          23          14  0.892295531493148     
           8           2
          23          15   1.10914338107407     
           8           2
          23          16   1.10914338107407     
           9           2
          23          17  0.810995733841564     
           9           2
          23          18  0.810995733841564     
           1           0
          23          19   1.26790904218095     
           1           0
          23          20   1.26790904218095     
           2           1
          23          21   1.17276232807784     
           2           1
          23          22   1.17276232807784     
           3           1
          23          23  0.833484080976924     
           3           1
          23          24  0.833484080976924     
           4           1
          23          25  0.833484080976927     
           4           1
          23          26  0.833484080976927     
           5           2
          23          27   1.06131084740586     
           5           2
          23          28   1.06131084740586     
           6           2
          23          29  0.892295531493149     
           6           2
          23          30  0.892295531493149     
           7           2
          23          31  0.892295531493148     
           7           2
          23          32  0.892295531493148     
           8           2
          23          33   1.10914338107407     
           8           2
          23          34   1.10914338107407     
           9           2
          23          35  0.810995733841564     
           9           2
          23          36  0.810995733841564     
      24           1           0
          24           1   1.22788170565226     
           1           0
          24           2   1.22788170565226     
           2           1
          24           3   1.22830655693874     
           2           1
          24           4   1.22830655693874     
           3           1
          24           5  0.830160407082415     
           3           1
          24           6  0.830160407082415     
           4           1
          24           7  0.830160407082418     
           4           1
          24           8  0.830160407082418     
           5           2
          24           9   1.04044250609680     
           5           2
          24          10   1.04044250609680     
           6           2
          24          11  0.900392696207581     
           6           2
          24          12  0.900392696207581     
           7           2
          24          13  0.900392696207581     
           7           2
          24          14  0.900392696207581     
           8           2
          24          15   1.10701810648887     
           8           2
          24          16   1.10701810648887     
           9           2
          24          17  0.810551159469320     
           9           2
          24          18  0.810551159469320     
           1           0
          24          19   1.22788170565226     
           1           0
          24          20   1.22788170565226     
           2           1
          24          21   1.22830655693874     
           2           1
          24          22   1.22830655693874     
           3           1
          24          23  0.830160407082415     
           3           1
          24          24  0.830160407082415     
           4           1
          24          25  0.830160407082418     
           4           1
          24          26  0.830160407082418     
           5           2
          24          27   1.04044250609680     
           5           2
          24          28   1.04044250609680     
           6           2
          24          29  0.900392696207581     
           6           2
          24          30  0.900392696207581     
           7           2
          24          31  0.900392696207581     
           7           2
          24          32  0.900392696207581     
           8           2
          24          33   1.10701810648887     
           8           2
          24          34   1.10701810648887     
           9           2
          24          35  0.810551159469320     
           9           2
          24          36  0.810551159469320     
      25           1           0
          25           1   1.22869283073448     
           1           0
          25           2   1.22869283073448     
           2           1
          25           3  0.970080999053561     
           2           1
          25           4  0.970080999053561     
           3           1
          25           5  0.822787828200974     
           3           1
          25           6  0.822787828200974     
           4           1
          25           7   1.02639349064273     
           4           1
          25           8   1.02639349064273     
           5           2
          25           9   1.08038833083236     
           5           2
          25          10   1.08038833083236     
           6           2
          25          11  0.860422674947470     
           6           2
          25          12  0.860422674947470     
           7           2
          25          13  0.942103111374246     
           7           2
          25          14  0.942103111374246     
           8           2
          25          15   1.07094880576961     
           8           2
          25          16   1.07094880576961     
           9           2
          25          17  0.860614668968497     
           9           2
          25          18  0.860614668968497     
           1           0
          25          19   1.22869283073448     
           1           0
          25          20   1.22869283073448     
           2           1
          25          21  0.970080999053561     
           2           1
          25          22  0.970080999053561     
           3           1
          25          23  0.822787828200974     
           3           1
          25          24  0.822787828200974     
           4           1
          25          25   1.02639349064273     
           4           1
          25          26   1.02639349064273     
           5           2
          25          27   1.08038833083236     
           5           2
          25          28   1.08038833083236     
           6           2
          25          29  0.860422674947469     
           6           2
          25          30  0.860422674947469     
           7           2
          25          31  0.942103111374246     
           7           2
          25          32  0.942103111374246     
           8           2
          25          33   1.07094880576960     
           8           2
          25          34   1.07094880576960     
           9           2
          25          35  0.860614668968497     
           9           2
          25          36  0.860614668968497     
      26           1           0
          26           1   1.19822502585736     
           1           0
          26           2   1.19822502585736     
           2           1
          26           3   1.01663473339563     
           2           1
          26           4   1.01663473339563     
           3           1
          26           5  0.820074114063289     
           3           1
          26           6  0.820074114063289     
           4           1
          26           7   1.01778220490952     
           4           1
          26           8   1.01778220490952     
           5           2
          26           9   1.05549012280628     
           5           2
          26          10   1.05549012280628     
           6           2
          26          11  0.867138963606450     
           6           2
          26          12  0.867138963606450     
           7           2
          26          13  0.959683807590898     
           7           2
          26          14  0.959683807590898     
           8           2
          26          15   1.06836809749489     
           8           2
          26          16   1.06836809749489     
           9           2
          26          17  0.859398154672285     
           9           2
          26          18  0.859398154672285     
           1           0
          26          19   1.19822502585736     
           1           0
          26          20   1.19822502585736     
           2           1
          26          21   1.01663473339563     
           2           1
          26          22   1.01663473339563     
           3           1
          26          23  0.820074114063289     
           3           1
          26          24  0.820074114063289     
           4           1
          26          25   1.01778220490952     
           4           1
          26          26   1.01778220490952     
           5           2
          26          27   1.05549012280628     
           5           2
          26          28   1.05549012280628     
           6           2
          26          29  0.867138963606450     
           6           2
          26          30  0.867138963606450     
           7           2
          26          31  0.959683807590898     
           7           2
          26          32  0.959683807590898     
           8           2
          26          33   1.06836809749489     
           8           2
          26          34   1.06836809749489     
           9           2
          26          35  0.859398154672285     
           9           2
          26          36  0.859398154672285     
      27           1           0
          27           1   1.13785669680189     
           1           0
          27           2   1.13785669680189     
           2           1
          27           3   1.10857089480851     
           2           1
          27           4   1.10857089480851     
           3           1
          27           5  0.814747344202388     
           3           1
          27           6  0.814747344202388     
           4           1
          27           7   1.00071567741873     
           4           1
          27           8   1.00071567741873     
           5           2
          27           9   1.00711669866011     
           5           2
          27          10   1.00711669866011     
           6           2
          27          11  0.880940261859566     
           6           2
          27          12  0.880940261859566     
           7           2
          27          13  0.994538202502323     
           7           2
          27          14  0.994538202502323     
           8           2
          27          15   1.06313279843707     
           8           2
          27          16   1.06313279843707     
           9           2
          27          17  0.857374058063361     
           9           2
          27          18  0.857374058063361     
           1           0
          27          19   1.13785669680189     
           1           0
          27          20   1.13785669680189     
           2           1
          27          21   1.10857089480851     
           2           1
          27          22   1.10857089480851     
           3           1
          27          23  0.814747344202388     
           3           1
          27          24  0.814747344202388     
           4           1
          27          25   1.00071567741872     
           4           1
          27          26   1.00071567741872     
           5           2
          27          27   1.00711669866011     
           5           2
          27          28   1.00711669866011     
           6           2
          27          29  0.880940261859566     
           6           2
          27          30  0.880940261859566     
           7           2
          27          31  0.994538202502323     
           7           2
          27          32  0.994538202502323     
           8           2
          27          33   1.06313279843707     
           8           2
          27          34   1.06313279843707     
           9           2
          27          35  0.857374058063361     
           9           2
          27          36  0.857374058063361     
      28           1           0
          28           1   1.10795452710357     
           1           0
          28           2   1.10795452710357     
           2           1
          28           3   1.15394806572956     
           2           1
          28           4   1.15394806572956     
           3           1
          28           5  0.812166526178136     
           3           1
          28           6  0.812166526178136     
           4           1
          28           7  0.992271449317971     
           4           1
          28           8  0.992271449317971     
           5           2
          28           9  0.983693213263952     
           5           2
          28          10  0.983693213263952     
           6           2
          28          11  0.888006913871756     
           6           2
          28          12  0.888006913871756     
           7           2
          28          13   1.01176225351819     
           7           2
          28          14   1.01176225351819     
           8           2
          28          15   1.06071163281812     
           8           2
          28          16   1.06071163281812     
           9           2
          28          17  0.856552764518167     
           9           2
          28          18  0.856552764518167     
           1           0
          28          19   1.10795452710357     
           1           0
          28          20   1.10795452710357     
           2           1
          28          21   1.15394806572956     
           2           1
          28          22   1.15394806572956     
           3           1
          28          23  0.812166526178136     
           3           1
          28          24  0.812166526178136     
           4           1
          28          25  0.992271449317971     
           4           1
          28          26  0.992271449317971     
           5           2
          28          27  0.983693213263952     
           5           2
          28          28  0.983693213263952     
           6           2
          28          29  0.888006913871755     
           6           2
          28          30  0.888006913871755     
           7           2
          28          31   1.01176225351819     
           7           2
          28          32   1.01176225351819     
           8           2
          28          33   1.06071163281812     
           8           2
          28          34   1.06071163281812     
           9           2
          28          35  0.856552764518166     
           9           2
          28          36  0.856552764518166     
      29           1           0
          29           1   1.05655079455696     
           1           0
          29           2   1.05655079455696     
           2           1
          29           3  0.933532939736950     
           2           1
          29           4  0.933532939736950     
           3           1
          29           5  0.799689424812831     
           3           1
          29           6  0.799689424812831     
           4           1
          29           7   1.21472069605511     
           4           1
          29           8   1.21472069605511     
           5           2
          29           9   1.02953514918285     
           5           2
          29          10   1.02953514918285     
           6           2
          29          11  0.851236078422071     
           6           2
[...]
          54           7   1.16022355692144     
           4           1
          54           8   1.16022355692144     
           5           2
          54           9  0.928097569648122     
           5           2
          54          10  0.928097569648122     
           6           2
          54          11  0.983392740117172     
           6           2
          54          12  0.983392740117172     
           7           2
          54          13   1.04855937532471     
           7           2
          54          14   1.04855937532471     
           8           2
          54          15  0.792819498877203     
           8           2
          54          16  0.792819498877203     
           9           2
          54          17   1.20531064811656     
           9           2
          54          18   1.20531064811656     
           1           0
          54          19  0.792725907224189     
           1           0
          54          20  0.792725907224189     
           2           1
          54          21  0.883187037403700     
           2           1
          54          22  0.883187037403700     
           3           1
          54          23   1.02884819356176     
           3           1
          54          24   1.02884819356176     
           4           1
          54          25   1.16022355692144     
           4           1
          54          26   1.16022355692144     
           5           2
          54          27  0.928097569648122     
           5           2
          54          28  0.928097569648122     
           6           2
          54          29  0.983392740117172     
           6           2
          54          30  0.983392740117172     
           7           2
          54          31   1.04855937532471     
           7           2
          54          32   1.04855937532471     
           8           2
          54          33  0.792819498877203     
           8           2
          54          34  0.792819498877203     
           9           2
          54          35   1.20531064811656     
           9           2
          54          36   1.20531064811656     
      55           1           0
          55           1  0.776967526729236     
           1           0
          55           2  0.776967526729236     
           2           1
          55           3  0.921315449290051     
           2           1
          55           4  0.921315449290051     
           3           1
          55           5   1.01812015704678     
           3           1
          55           6   1.01812015704678     
           4           1
          55           7   1.14376816239505     
           4           1
          55           8   1.14376816239505     
           5           2
          55           9  0.877043567517319     
           5           2
          55          10  0.877043567517319     
           6           2
          55          11   1.01297812782112     
           6           2
          55          12   1.01297812782112     
           7           2
          55          13   1.09114269820711     
           7           2
          55          14   1.09114269820711     
           8           2
          55          15  0.790725633772269     
           8           2
          55          16  0.790725633772269     
           9           2
          55          17   1.19295484341023     
           9           2
          55          18   1.19295484341023     
           1           0
          55          19  0.776967526729236     
           1           0
          55          20  0.776967526729236     
           2           1
          55          21  0.921315449290051     
           2           1
          55          22  0.921315449290051     
           3           1
          55          23   1.01812015704678     
           3           1
          55          24   1.01812015704678     
           4           1
          55          25   1.14376816239505     
           4           1
          55          26   1.14376816239505     
           5           2
          55          27  0.877043567517319     
           5           2
          55          28  0.877043567517319     
           6           2
          55          29   1.01297812782112     
           6           2
          55          30   1.01297812782112     
           7           2
          55          31   1.09114269820711     
           7           2
          55          32   1.09114269820711     
           8           2
          55          33  0.790725633772269     
           8           2
          55          34  0.790725633772269     
           9           2
          55          35   1.19295484341023     
           9           2
          55          36   1.19295484341023     
      56           1           0
          56           1  0.769108394706884     
           1           0
          56           2  0.769108394706884     
           2           1
          56           3  0.940325552116870     
           2           1
          56           4  0.940325552116870     
           3           1
          56           5   1.01280626660566     
           3           1
          56           6   1.01280626660566     
           4           1
          56           7   1.13554966889781     
           4           1
          56           8   1.13554966889781     
           5           2
          56           9  0.851625376244219     
           5           2
          56          10  0.851625376244219     
           6           2
          56          11   1.02789963182100     
           6           2
          56          12   1.02789963182100     
           7           2
          56          13   1.11234553778264     
           7           2
          56          14   1.11234553778264     
           8           2
          56          15  0.789771723946141     
           8           2
          56          16  0.789771723946141     
           9           2
          56          17   1.18679092352869     
           9           2
          56          18   1.18679092352869     
           1           0
          56          19  0.769108394706884     
           1           0
          56          20  0.769108394706884     
           2           1
          56          21  0.940325552116870     
           2           1
          56          22  0.940325552116870     
           3           1
          56          23   1.01280626660566     
           3           1
          56          24   1.01280626660566     
           4           1
          56          25   1.13554966889781     
           4           1
          56          26   1.13554966889781     
           5           2
          56          27  0.851625376244219     
           5           2
          56          28  0.851625376244219     
           6           2
          56          29   1.02789963182100     
           6           2
          56          30   1.02789963182100     
           7           2
          56          31   1.11234553778264     
           7           2
          56          32   1.11234553778264     
           8           2
          56          33  0.789771723946141     
           8           2
          56          34  0.789771723946141     
           9           2
          56          35   1.18679092352869     
           9           2
          56          36   1.18679092352869     
      57           1           0
          57           1  0.750730194645490     
           1           0
          57           2  0.750730194645490     
           2           1
          57           3  0.848309527613021     
           2           1
          57           4  0.848309527613021     
           3           1
          57           5   1.11550781300035     
           3           1
          57           6   1.11550781300035     
           4           1
          57           7   1.11550781300035     
           4           1
          57           8   1.11550781300035     
           5           2
          57           9  0.938974381279543     
           5           2
          57          10  0.938974381279543     
           6           2
          57          11   1.01036348185342     
           6           2
          57          12   1.01036348185342     
           7           2
          57          13   1.01036348185342     
           7           2
          57          14   1.01036348185342     
           8           2
          57          15  0.726544415445589     
           8           2
          57          16  0.726544415445589     
           9           2
          57          17   1.29700188823379     
           9           2
          57          18   1.29700188823379     
           1           0
          57          19  0.750730194645490     
           1           0
          57          20  0.750730194645490     
           2           1
          57          21  0.848309527613021     
           2           1
          57          22  0.848309527613021     
           3           1
          57          23   1.11550781300035     
           3           1
          57          24   1.11550781300035     
           4           1
          57          25   1.11550781300035     
           4           1
          57          26   1.11550781300035     
           5           2
          57          27  0.938974381279543     
           5           2
          57          28  0.938974381279543     
           6           2
          57          29   1.01036348185342     
           6           2
          57          30   1.01036348185342     
           7           2
          57          31   1.01036348185342     
           7           2
          57          32   1.01036348185342     
           8           2
          57          33  0.726544415445589     
           8           2
          57          34  0.726544415445589     
           9           2
          57          35   1.29700188823379     
           9           2
          57          36   1.29700188823379     
      58           1           0
          58           1  0.744692175253755     
           1           0
          58           2  0.744692175253755     
           2           1
          58           3  0.864437913677435     
           2           1
          58           4  0.864437913677435     
           3           1
          58           5   1.10916378656652     
           3           1
          58           6   1.10916378656652     
           4           1
          58           7   1.10916378656652     
           4           1
          58           8   1.10916378656652     
           5           2
          58           9  0.913783723818758     
           5           2
          58          10  0.913783723818758     
           6           2
          58          11   1.02823548993684     
           6           2
          58          12   1.02823548993684     
           7           2
          58          13   1.02823548993684     
           7           2
          58          14   1.02823548993684     
           8           2
          58          15  0.726210210714636     
           8           2
          58          16  0.726210210714636     
           9           2
          58          17   1.28974525586520     
           9           2
          58          18   1.28974525586520     
           1           0
          58          19  0.744692175253755     
           1           0
          58          20  0.744692175253755     
           2           1
          58          21  0.864437913677435     
           2           1
          58          22  0.864437913677435     
           3           1
          58          23   1.10916378656652     
           3           1
          58          24   1.10916378656652     
           4           1
          58          25   1.10916378656652     
           4           1
          58          26   1.10916378656652     
           5           2
          58          27  0.913783723818758     
           5           2
          58          28  0.913783723818758     
           6           2
          58          29   1.02823548993684     
           6           2
          58          30   1.02823548993684     
           7           2
          58          31   1.02823548993684     
           7           2
          58          32   1.02823548993684     
           8           2
          58          33  0.726210210714636     
           8           2
          58          34  0.726210210714636     
           9           2
          58          35   1.28974525586520     
           9           2
          58          36   1.28974525586520     
      59           1           0
          59           1  0.732637648209688     
           1           0
          59           2  0.732637648209688     
           2           1
          59           3  0.896746797785305     
           2           1
          59           4  0.896746797785305     
           3           1
          59           5   1.09653690263370     
           3           1
          59           6   1.09653690263370     
           4           1
          59           7   1.09653690263371     
           4           1
          59           8   1.09653690263371     
           5           2
          59           9  0.864220423406890     
           5           2
          59          10  0.864220423406890     
           6           2
          59          11   1.06405787920351     
           6           2
          59          12   1.06405787920351     
           7           2
          59          13   1.06405787920351     
           7           2
          59          14   1.06405787920351     
           8           2
          59          15  0.725888366960005     
           8           2
          59          16  0.725888366960005     
           9           2
          59          17   1.27520222890404     
           9           2
          59          18   1.27520222890404     
           1           0
          59          19  0.732637648209688     
           1           0
          59          20  0.732637648209688     
           2           1
          59          21  0.896746797785305     
           2           1
          59          22  0.896746797785305     
           3           1
          59          23   1.09653690263370     
           3           1
          59          24   1.09653690263370     
           4           1
          59          25   1.09653690263371     
           4           1
          59          26   1.09653690263371     
           5           2
          59          27  0.864220423406890     
           5           2
          59          28  0.864220423406890     
           6           2
          59          29   1.06405787920351     
           6           2
          59          30   1.06405787920351     
           7           2
          59          31   1.06405787920351     
           7           2
          59          32   1.06405787920351     
           8           2
          59          33  0.725888366960005     
           8           2
          59          34  0.725888366960005     
           9           2
          59          35   1.27520222890404     
           9           2
          59          36   1.27520222890404     
      60
           1           0
          60           1  0.726620669683466     
           1           0
          60           2  0.726620669683466     
           2           1
          60           3  0.912840085457596     
           2           1
          60           4  0.912840085457596     
           3           1
          60           5   1.09025329774442     
           3           1
          60           6   1.09025329774442     
           4           1
          60           7   1.09025329774443     
           4           1
          60           8   1.09025329774443     
           5           2
          60           9  0.839395399413050     
           5           2
          60          10  0.839395399413050     
           6           2
          60          11   1.08194959063993     
           6           2
          60          12   1.08194959063993     
           7           2
          60          13   1.08194959063993     
           7           2
          60          14   1.08194959063993     
           8           2
          60          15  0.725858588115648     
           8           2
          60          16  0.725858588115648     
           9           2
          60          17   1.26798001992514     
           9           2
          60          18   1.26798001992514     
           1           0
          60          19  0.726620669683466     
           1           0
          60          20  0.726620669683466     
           2           1
          60          21  0.912840085457596     
           2           1
          60          22  0.912840085457596     
           3           1
          60          23   1.09025329774442     
           3           1
          60          24   1.09025329774442     
           4           1
          60          25   1.09025329774443     
           4           1
          60          26   1.09025329774443     
           5           2
          60          27  0.839395399413050     
           5           2
          60          28  0.839395399413050     
           6           2
          60          29   1.08194959063993     
           6           2
          60          30   1.08194959063993     
           7           2
          60          31   1.08194959063993     
           7           2
          60          32   1.08194959063993     
           8           2
          60          33  0.725858588115648     
           8           2
          60          34  0.725858588115648     
           9           2
          60          35   1.26798001992514     
           9           2
          60          36   1.26798001992514     


  AMN calculated
 
  ---------------
  *** Compute  M 
  ---------------
 
  MMN: iknum =       60
       1       2       3       4       5       6       7       8       9      10
      11      12      13      14      15      16      17      18      19      20
      21      22      23      24      25      26      27      28      29      30
      31      32      33      34      35      36      37      38      39      40
      41      42      43      44      45      46      47      48      49      50
      51      52      53      54      55      56      57      58      59      60


  IBZ MMN calculated
 
  --------------------------------
  *** Spin matrix is not computed 
  --------------------------------
 
  -----------------------------------
  *** Orbital terms are not computed 
  -----------------------------------
 
  -----------------------------------
  *** SHC terms are not computed 
  -----------------------------------
 
  ----------------
  *** Write bands 
  ----------------
 
 
  -----------------------------
  *** Plot info is not printed 
  -----------------------------
 
  -----------------------------
  *** Parity info is not printed 
  -----------------------------
 
  ------------
  *** Stop pp 
  ------------
 
 
     init_pw2wan  :      1.59s CPU      4.47s WALL (       1 calls)
     compute_amn  :     13.79s CPU     13.90s WALL (       1 calls)
     compute_mmn_ :     80.21s CPU     81.53s WALL (       1 calls)
 
     PW2WANNIER   :   1m35.59s CPU   1m40.00s WALL

 
   This run was terminated on:  15:12: 0  23May2024            

=------------------------------------------------------------------------------=
   JOB DONE.
=------------------------------------------------------------------------------=
 
