 
             +---------------------------------------------------+
             |                                                   |
             |                   WANNIER90                       |
             |                                                   |
             +---------------------------------------------------+
             |                                                   |
             |        Welcome to the Maximally-Localized         |
             |        Generalized Wannier Functions code         |
             |            http://www.wannier.org                 |
             |                                                   |
             |                                                   |
             |  Wannier90 Developer Group:                       |
             |    Giovanni Pizzi    (EPFL)                       |
             |    Valerio Vitale    (Cambridge)                  |
             |    David Vanderbilt  (Rutgers University)         |
             |    Nicola Marzari    (EPFL)                       |
             |    Ivo Souza         (Universidad del Pais Vasco) |
             |    Arash A. Mostofi  (Imperial College London)    |
             |    Jonathan R. Yates (University of Oxford)       |
             |                                                   |
             |  For the full list of Wannier90 3.x authors,      |
             |  please check the code documentation and the      |
             |  README on the GitHub page of the code            |
             |                                                   |
             |                                                   |
             |  Please cite                                      |
             |                                                   |
             |  [ref] "Wannier90 as a community code:            |
             |        new features and applications",            |
             |        G. Pizzi et al., J. Phys. Cond. Matt. 32,  |
             |        165902 (2020).                             |
             |        http://doi.org/10.1088/1361-648X/ab51ff    |
             |                                                   |
             |  in any publications arising from the use of      |
             |  this code. For the method please cite            |
             |                                                   |
             |  [ref] "Maximally Localized Generalised Wannier   |
             |         Functions for Composite Energy Bands"     |
             |         N. Marzari and D. Vanderbilt              |
             |         Phys. Rev. B 56 12847 (1997)              |
             |                                                   |
             |  [ref] "Maximally Localized Wannier Functions     |
             |         for Entangled Energy Bands"               |
             |         I. Souza, N. Marzari and D. Vanderbilt    |
             |         Phys. Rev. B 65 035109 (2001)             |
             |                                                   |
             |                                                   |
             | Copyright (c) 1996-2020                           |
             |        The Wannier90 Developer Group and          |
             |        individual contributors                    |
             |                                                   |
             |      Release: 3.1.0        5th March    2020      |
             |                                                   |
             | This program is free software; you can            |
             | redistribute it and/or modify it under the terms  |
             | of the GNU General Public License as published by |
             | the Free Software Foundation; either version 2 of |
             | the License, or (at your option) any later version|
             |                                                   |
             | This program is distributed in the hope that it   |
             | will be useful, but WITHOUT ANY WARRANTY; without |
             | even the implied warranty of MERCHANTABILITY or   |
             | FITNESS FOR A PARTICULAR PURPOSE. See the GNU     |
             | General Public License for more details.          |
             |                                                   |
             | You should have received a copy of the GNU General|
             | Public License along with this program; if not,   |
             | write to the Free Software Foundation, Inc.,      |
             | 675 Mass Ave, Cambridge, MA 02139, USA.           |
             |                                                   |
             +---------------------------------------------------+
             |    Execution started on 23May2024 at 15:15:00     |
             +---------------------------------------------------+
 
 ******************************************************************************
 * -> Using CODATA 2006 constant values                                       *
 *    (http://physics.nist.gov/cuu/Constants/index.html)                      *
 * -> Using Bohr value from CODATA                                            *
 ******************************************************************************
 

 Running in parallel on  22 CPUs

 
                                    ------
                                    SYSTEM
                                    ------
 
                              Lattice Vectors (Ang)
                    a_1     2.728143   0.000000   0.000000
                    a_2     0.000000   2.728143   0.000000
                    a_3     0.000000   0.000000   3.778984
 
                   Unit Cell Volume:      28.12609  (Ang^3)
 
                        Reciprocal-Space Vectors (Ang^-1)
                    b_1     2.303100   0.000000   0.000000
                    b_2     0.000000   2.303100   0.000000
                    b_3     0.000000   0.000000   1.662665
  
 *----------------------------------------------------------------------------*
 |   Site       Fractional Coordinate          Cartesian Coordinate (Ang)     |
 +----------------------------------------------------------------------------+
 | Fe   1   0.00000   0.00000   0.00000   |    0.00000   0.00000   0.00000    |
 | Pt   1   0.50000   0.50000   0.50000   |    1.36407   1.36407   1.88949    |
 *----------------------------------------------------------------------------*
                                ------------
                                K-POINT GRID
                                ------------
  
             Grid size =  9 x  9 x  6      Total points =  486
  
  
 *---------------------------------- MAIN ------------------------------------*
 |  Number of Wannier Functions               :                36             |
 |  Number of Objective Wannier Functions     :                36             |
 |  Number of input Bloch states              :                90             |
 |  Output verbosity (1=low, 5=high)          :                 1             |
 |  Timing Level (1=low, 5=high)              :                 1             |
 |  Optimisation (0=memory, 3=speed)          :                 3             |
 |  Length Unit                               :               Ang             |
 |  Post-processing setup (write *.nnkp)      :                 F             |
 |  Using Gamma-only branch of algorithms     :                 F             |
 *----------------------------------------------------------------------------*
 *------------------------------- WANNIERISE ---------------------------------*
 |  Total number of iterations                :                 0             |
 |  Number of CG steps before reset           :                 5             |
 |  Trial step length for line search         :             2.000             |
 |  Convergence tolerence                     :         0.100E-09             |
 |  Convergence window                        :                -1             |
 |  Iterations between writing output         :                 1             |
 |  Iterations between backing up to disk     :               100             |
 |  Write r^2_nm to file                      :                 F             |
 |  Write xyz WF centres to file              :                 F             |
 |  Write on-site energies <0n|H|0n> to file  :                 F             |
 |  Use guiding centre to control phases      :                 F             |
 |  Use phases for initial projections        :                 F             |
 *----------------------------------------------------------------------------*
 *------------------------------- DISENTANGLE --------------------------------*
 |  Using band disentanglement                :                 T             |
 |  Total number of iterations                :               200             |
 |  Mixing ratio                              :             0.500             |
 |  Convergence tolerence                     :         1.000E-10             |
 |  Convergence window                        :                 3             |
 *----------------------------------------------------------------------------*
 *-------------------------------- PLOTTING ----------------------------------*
 |  Plotting interpolated bandstructure       :                 T             |
 |   Number of K-path sections                :                 9             |
 |   Divisions along first K-path section     :               100             |
 |   Output format                            :           gnuplot             |
 |   Output mode                              :               s-k             |
 *----------------------------------------------------------------------------*
 |   K-space path sections:                                                   |
 |    From: G       0.000  0.000  0.000     To: X       0.000  0.500  0.000   |
 |    From: X       0.000  0.500  0.000     To: M       0.500  0.500  0.000   |
 |    From: M       0.500  0.500  0.000     To: G       0.000  0.000  0.000   |
 |    From: G       0.000  0.000  0.000     To: Z       0.000  0.000  0.500   |
 |    From: Z       0.000  0.000  0.500     To: R       0.000  0.500  0.500   |
 |    From: R       0.000  0.500  0.500     To: A       0.500  0.500  0.500   |
 |    From: A       0.500  0.500  0.500     To: Z       0.000  0.000  0.500   |
 |    From: X       0.000  0.500  0.000     To: R       0.000  0.500  0.500   |
 |    From: M       0.500  0.500  0.000     To: A       0.500  0.500  0.500   |
 *----------------------------------------------------------------------------*
 |  Plotting Hamiltonian in WF basis          :                 T             |
 *----------------------------------------------------------------------------*
 Time to read parameters        0.055 (sec)

 *---------------------------------- K-MESH ----------------------------------*
 +----------------------------------------------------------------------------+
 |                    Distance to Nearest-Neighbour Shells                    |
 |                    ------------------------------------                    |
 |          Shell             Distance (Ang^-1)          Multiplicity         |
 |          -----             -----------------          ------------         |
 |             1                   0.255900                      4            |
 |             2                   0.277111                      2            |
 |             3                   0.361897                      4            |
 |             4                   0.377194                      8            |
 |             5                   0.455807                      8            |
 |             6                   0.511800                      4            |
 |             7                   0.554222                      2            |
 |             8                   0.572210                      8            |
 |             9                   0.582005                      8            |
 |            10                   0.610448                      8            |
 |            11                   0.635779                     16            |
 |            12                   0.661915                      8            |
 |            13                   0.723794                      4            |
 |            14                   0.754388                      8            |
 |            15                   0.767700                      4            |
 |            16                   0.775028                      8            |
 |            17                   0.796609                     16            |
 |            18                   0.809227                      8            |
 |            19                   0.816182                      8            |
 |            20                   0.831333                      2            |
 |            21                   0.855359                     16            |
 |            22                   0.869827                      8            |
 |            23                   0.906688                      8            |
 |            24                   0.911614                      8            |
 |            25                   0.922660                      8            |
 |            26                   0.946850                      8            |
 |            27                   0.963376                     16            |
 |            28                   0.976244                      8            |
 |            29                   0.980821                     16            |
 |            30                   1.009226                     16            |
 |            31                   1.023600                      4            |
 |            32                   1.055103                      8            |
 |            33                   1.060447                      8            |
 |            34                   1.076320                     16            |
 |            35                   1.085692                      4            |
 |            36                   1.090886                     16            |
 +----------------------------------------------------------------------------+
 | The b-vectors are chosen automatically                                     |
 | The following shells are used:   1,  2                                     |
 +----------------------------------------------------------------------------+
 |                        Shell   # Nearest-Neighbours                        |
 |                        -----   --------------------                        |
 |                          1               4                                 |
 |                          2               2                                 |
 +----------------------------------------------------------------------------+
 | Completeness relation is fully satisfied [Eq. (B1), PRB 56, 12847 (1997)]  |
 +----------------------------------------------------------------------------+
 |                  b_k Vectors (Ang^-1) and Weights (Ang^2)                  |
 |                  ----------------------------------------                  |
 |            No.         b_k(x)      b_k(y)      b_k(z)        w_b           |
 |            ---        --------------------------------     --------        |
 |             1         0.000000    0.255900    0.000000     7.635361        |
 |             2         0.000000   -0.255900    0.000000     7.635361        |
 |             3         0.255900    0.000000    0.000000     7.635361        |
 |             4        -0.255900    0.000000    0.000000     7.635361        |
 |             5         0.000000    0.000000    0.277111     6.511228        |
 |             6         0.000000    0.000000   -0.277111     6.511228        |
 +----------------------------------------------------------------------------+
 |                           b_k Directions (Ang^-1)                          |
 |                           -----------------------                          |
 |            No.           x           y           z                         |
 |            ---        --------------------------------                     |
 |             1         0.000000    0.255900    0.000000                     |
 |             2         0.255900    0.000000    0.000000                     |
 |             3         0.000000    0.000000    0.277111                     |
 +----------------------------------------------------------------------------+
  
 Time to get kmesh              0.235 (sec)
 *============================================================================*
 |                              MEMORY ESTIMATE                               |
 |         Maximum RAM allocated during each phase of the calculation         |
 *============================================================================*
 |                        Disentanglement          539.76 Mb                  |
 |                            Wannierise:          182.44 Mb                  |
 |                          plot_wannier:          182.44 Mb                  |
 *----------------------------------------------------------------------------*
  
 Starting a new Wannier90 calculation ...


 Reading overlaps from pwscf.mmn    : Mmn created by mmn.py

 Reading projections from pwscf.amn : Amn created by amn.py

 Time to read overlaps         15.812 (sec)

 *------------------------------- DISENTANGLE --------------------------------*
 +----------------------------------------------------------------------------+
 |                              Energy  Windows                               |
 |                              ---------------                               |
 |                   Outer:    7.48056  to   80.54622  (eV)                   |
 |                   Inner: **********  to   20.96270  (eV)                   |
 +----------------------------------------------------------------------------+
   Number of target bands to extract:   36

                   Unitarised projection of Wannier functions                  
                   ------------------------------------------                  
   A_mn = <psi_m|g_n> --> S = A.A^+ --> U = S^-1/2.A
   In dis_project... done
   Using an inner window (linner = T)
   In dis_proj_froz... done

                   Extraction of optimally-connected subspace                  
                   ------------------------------------------                  
 +---------------------------------------------------------------------+<-- DIS
 |  Iter     Omega_I(i-1)      Omega_I(i)      Delta (frac.)    Time   |<-- DIS
 +---------------------------------------------------------------------+<-- DIS
       1      26.65353741      25.13301232       6.050E-02      0.00    <-- DIS
       2      25.72345952      24.69177069       4.178E-02      0.10    <-- DIS
       3      25.14859491      24.38177368       3.145E-02      0.20    <-- DIS
       4      24.71902471      24.14241295       2.388E-02      0.31    <-- DIS
       5      24.39370359      23.95088284       1.849E-02      0.41    <-- DIS
       6      24.14198151      23.79380501       1.463E-02      0.51    <-- DIS
       7      23.94262181      23.66250624       1.184E-02      0.61    <-- DIS
       8      23.78117632      23.55107277       9.770E-03      0.71    <-- DIS
       9      23.64779564      23.45531635       8.206E-03      0.81    <-- DIS
      10      23.53568187      23.37217609       6.996E-03      0.91    <-- DIS
      11      23.44005643      23.29935487       6.039E-03      1.01    <-- DIS
      12      23.35748720      23.23508950       5.268E-03      1.11    <-- DIS
      13      23.28545256      23.17800051       4.636E-03      1.22    <-- DIS
      14      23.22205786      23.12699081       4.111E-03      1.32    <-- DIS
      15      23.16584923      23.08117559       3.669E-03      1.42    <-- DIS
      16      23.11568947      23.03983252       3.292E-03      1.52    <-- DIS
      17      23.07067374      23.00236566       2.970E-03      1.62    <-- DIS
      18      23.03007135      22.96827876       2.690E-03      1.72    <-- DIS
      19      22.99328454      22.93715518       2.447E-03      1.82    <-- DIS
      20      22.95981879      22.90864259       2.234E-03      1.92    <-- DIS
      21      22.92926100      22.88244105       2.046E-03      2.02    <-- DIS
      22      22.90126315      22.85829372       1.880E-03      2.13    <-- DIS
      23      22.87552982      22.83597947       1.732E-03      2.23    <-- DIS
      24      22.85180863      22.81530700       1.600E-03      2.33    <-- DIS
      25      22.82988264      22.79611001       1.482E-03      2.43    <-- DIS
      26      22.80956437      22.77824335       1.375E-03      2.53    <-- DIS
      27      22.79069105      22.76157985       1.279E-03      2.63    <-- DIS
      28      22.77312070      22.74600763       1.192E-03      2.73    <-- DIS
      29      22.75672894      22.73142797       1.113E-03      2.83    <-- DIS
      30      22.74140644      22.71775343       1.041E-03      2.93    <-- DIS
      31      22.72705671      22.70490637       9.756E-04      3.04    <-- DIS
      32      22.71359433      22.69281760       9.156E-04      3.14    <-- DIS
      33      22.70094341      22.68142531       8.605E-04      3.24    <-- DIS
      34      22.68903637      22.67067416       8.100E-04      3.34    <-- DIS
      35      22.67781279      22.66051441       7.634E-04      3.44    <-- DIS
      36      22.66721858      22.65090131       7.204E-04      3.54    <-- DIS
      37      22.65720513      22.64179445       6.806E-04      3.64    <-- DIS
      38      22.64772866      22.63315730       6.438E-04      3.75    <-- DIS
      39      22.63874967      22.62495673       6.096E-04      3.85    <-- DIS
      40      22.63023242      22.61716264       5.779E-04      3.95    <-- DIS
      41      22.62214447      22.60974766       5.483E-04      4.05    <-- DIS
      42      22.61445638      22.60268677       5.207E-04      4.15    <-- DIS
      43      22.60714132      22.59595715       4.950E-04      4.26    <-- DIS
      44      22.60017481      22.58953788       4.709E-04      4.36    <-- DIS
      45      22.59353447      22.58340978       4.483E-04      4.46    <-- DIS
      46      22.58719980      22.57755521       4.272E-04      4.57    <-- DIS
      47      22.58115198      22.57195794       4.073E-04      4.67    <-- DIS
      48      22.57537372      22.56660301       3.887E-04      4.77    <-- DIS
      49      22.56984908      22.56147658       3.711E-04      4.87    <-- DIS
      50      22.56456338      22.55656587       3.546E-04      4.97    <-- DIS
      51      22.55950302      22.55185903       3.390E-04      5.07    <-- DIS
      52      22.55465546      22.54734506       3.242E-04      5.17    <-- DIS
      53      22.55000904      22.54301374       3.103E-04      5.28    <-- DIS
      54      22.54555294      22.53885555       2.971E-04      5.38    <-- DIS
      55      22.54127711      22.53486164       2.847E-04      5.48    <-- DIS
      56      22.53717220      22.53102373       2.729E-04      5.59    <-- DIS
      57      22.53322948      22.52733409       2.617E-04      5.69    <-- DIS
      58      22.52944081      22.52378548       2.511E-04      5.79    <-- DIS
      59      22.52579856      22.52037115       2.410E-04      5.89    <-- DIS
      60      22.52229563      22.51708473       2.314E-04      5.99    <-- DIS
      61      22.51892532      22.51392025       2.223E-04      6.09    <-- DIS
      62      22.51568138      22.51087211       2.136E-04      6.19    <-- DIS
      63      22.51255792      22.50793504       2.054E-04      6.29    <-- DIS
      64      22.50954942      22.50510405       1.975E-04      6.39    <-- DIS
      65      22.50665066      22.50237447       1.900E-04      6.50    <-- DIS
      66      22.50385673      22.49974187       1.829E-04      6.60    <-- DIS
      67      22.50116303      22.49720208       1.761E-04      6.70    <-- DIS
      68      22.49856516      22.49475113       1.696E-04      6.80    <-- DIS
      69      22.49605901      22.49238528       1.633E-04      6.90    <-- DIS
      70      22.49364067      22.49010101       1.574E-04      7.00    <-- DIS
      71      22.49130645      22.48789493       1.517E-04      7.10    <-- DIS
      72      22.48905283      22.48576387       1.463E-04      7.21    <-- DIS
      73      22.48687651      22.48370481       1.411E-04      7.31    <-- DIS
      74      22.48477433      22.48171485       1.361E-04      7.41    <-- DIS
      75      22.48274330      22.47979128       1.313E-04      7.51    <-- DIS
      76      22.48078057      22.47793148       1.268E-04      7.61    <-- DIS
      77      22.47888344      22.47613299       1.224E-04      7.71    <-- DIS
      78      22.47704934      22.47439343       1.182E-04      7.81    <-- DIS
      79      22.47527581      22.47271056       1.141E-04      7.91    <-- DIS
      80      22.47356052      22.47108223       1.103E-04      8.01    <-- DIS
      81      22.47190124      22.46950639       1.066E-04      8.12    <-- DIS
      82      22.47029585      22.46798109       1.030E-04      8.22    <-- DIS
      83      22.46874233      22.46650445       9.961E-05      8.32    <-- DIS
      84      22.46723872      22.46507470       9.633E-05      8.42    <-- DIS
      85      22.46578319      22.46369011       9.318E-05      8.52    <-- DIS
      86      22.46437396      22.46234905       9.015E-05      8.62    <-- DIS
      87      22.46300935      22.46104997       8.723E-05      8.72    <-- DIS
      88      22.46168773      22.45979135       8.443E-05      8.82    <-- DIS
      89      22.46040756      22.45857176       8.174E-05      8.93    <-- DIS
      90      22.45916735      22.45738983       7.915E-05      9.03    <-- DIS
      91      22.45796568      22.45624423       7.666E-05      9.13    <-- DIS
      92      22.45680118      22.45513370       7.426E-05      9.23    <-- DIS
      93      22.45567255      22.45405702       7.195E-05      9.33    <-- DIS
      94      22.45457854      22.45301303       6.972E-05      9.43    <-- DIS
      95      22.45351795      22.45200061       6.758E-05      9.53    <-- DIS
      96      22.45248961      22.45101867       6.552E-05      9.64    <-- DIS
      97      22.45149243      22.45006620       6.353E-05      9.74    <-- DIS
      98      22.45052533      22.44914218       6.161E-05      9.84    <-- DIS
      99      22.44958729      22.44824567       5.976E-05      9.94    <-- DIS
     100      22.44867734      22.44737576       5.798E-05     10.04    <-- DIS
     101      22.44779452      22.44653154       5.627E-05     10.14    <-- DIS
     102      22.44693793      22.44571219       5.461E-05     10.24    <-- DIS
     103      22.44610669      22.44491687       5.301E-05     10.35    <-- DIS
     104      22.44529997      22.44414480       5.147E-05     10.45    <-- DIS
     105      22.44451695      22.44339522       4.998E-05     10.55    <-- DIS
     106      22.44375685      22.44266741       4.854E-05     10.65    <-- DIS
     107      22.44301893      22.44196065       4.716E-05     10.75    <-- DIS
     108      22.44230246      22.44127427       4.582E-05     10.85    <-- DIS
     109      22.44160675      22.44060762       4.452E-05     10.95    <-- DIS
     110      22.44093113      22.43996006       4.327E-05     11.05    <-- DIS
     111      22.44027494      22.43933100       4.207E-05     11.16    <-- DIS
     112      22.43963758      22.43871983       4.090E-05     11.26    <-- DIS
     113      22.43901843      22.43812601       3.977E-05     11.36    <-- DIS
     114      22.43841692      22.43754898       3.868E-05     11.46    <-- DIS
     115      22.43783249      22.43698821       3.763E-05     11.56    <-- DIS
     116      22.43726461      22.43644321       3.661E-05     11.66    <-- DIS
     117      22.43671275      22.43591348       3.562E-05     11.76    <-- DIS
     118      22.43617641      22.43539854       3.467E-05     11.87    <-- DIS
     119      22.43565511      22.43489795       3.375E-05     11.97    <-- DIS
     120      22.43514838      22.43441126       3.286E-05     12.07    <-- DIS
     121      22.43465577      22.43393804       3.199E-05     12.17    <-- DIS
     122      22.43417685      22.43347789       3.116E-05     12.27    <-- DIS
     123      22.43371120      22.43303040       3.035E-05     12.37    <-- DIS
     124      22.43325840      22.43259519       2.956E-05     12.47    <-- DIS
     125      22.43281807      22.43217190       2.881E-05     12.58    <-- DIS
     126      22.43238983      22.43176016       2.807E-05     12.68    <-- DIS
     127      22.43197332      22.43135962       2.736E-05     12.78    <-- DIS
     128      22.43156817      22.43096996       2.667E-05     12.88    <-- DIS
     129      22.43117404      22.43059084       2.600E-05     12.98    <-- DIS
     130      22.43079062      22.43022195       2.535E-05     13.08    <-- DIS
     131      22.43041757      22.42986299       2.472E-05     13.18    <-- DIS
     132      22.43005458      22.42951367       2.412E-05     13.29    <-- DIS
     133      22.42970137      22.42917370       2.353E-05     13.39    <-- DIS
     134      22.42935763      22.42884281       2.295E-05     13.49    <-- DIS
     135      22.42902309      22.42852074       2.240E-05     13.59    <-- DIS
     136      22.42869748      22.42820722       2.186E-05     13.69    <-- DIS
     137      22.42838054      22.42790200       2.134E-05     13.79    <-- DIS
     138      22.42807201      22.42760485       2.083E-05     13.89    <-- DIS
     139      22.42777164      22.42731553       2.034E-05     14.00    <-- DIS
     140      22.42747921      22.42703382       1.986E-05     14.10    <-- DIS
     141      22.42719448      22.42675949       1.940E-05     14.20    <-- DIS
     142      22.42691722      22.42649235       1.895E-05     14.30    <-- DIS
     143      22.42664723      22.42623217       1.851E-05     14.40    <-- DIS
     144      22.42638429      22.42597876       1.808E-05     14.50    <-- DIS
     145      22.42612821      22.42573193       1.767E-05     14.60    <-- DIS
     146      22.42587878      22.42549150       1.727E-05     14.71    <-- DIS
     147      22.42563582      22.42525728       1.688E-05     14.81    <-- DIS
     148      22.42539914      22.42502909       1.650E-05     14.91    <-- DIS
     149      22.42516856      22.42480677       1.613E-05     15.01    <-- DIS
     150      22.42494392      22.42459016       1.578E-05     15.11    <-- DIS
     151      22.42472505      22.42437908       1.543E-05     15.21    <-- DIS
     152      22.42451178      22.42417340       1.509E-05     15.31    <-- DIS
     153      22.42430395      22.42397295       1.476E-05     15.42    <-- DIS
     154      22.42410142      22.42377760       1.444E-05     15.52    <-- DIS
     155      22.42390404      22.42358720       1.413E-05     15.62    <-- DIS
     156      22.42371166      22.42340162       1.383E-05     15.72    <-- DIS
     157      22.42352415      22.42322071       1.353E-05     15.82    <-- DIS
     158      22.42334137      22.42304437       1.325E-05     15.92    <-- DIS
     159      22.42316319      22.42287245       1.297E-05     16.03    <-- DIS
     160      22.42298948      22.42270484       1.269E-05     16.13    <-- DIS
     161      22.42282012      22.42254142       1.243E-05     16.23    <-- DIS
     162      22.42265500      22.42238208       1.217E-05     16.33    <-- DIS
     163      22.42249400      22.42222670       1.192E-05     16.43    <-- DIS
     164      22.42233700      22.42207518       1.168E-05     16.53    <-- DIS
     165      22.42218389      22.42192742       1.144E-05     16.63    <-- DIS
     166      22.42203458      22.42178331       1.121E-05     16.74    <-- DIS
     167      22.42188895      22.42164276       1.098E-05     16.84    <-- DIS
     168      22.42174692      22.42150567       1.076E-05     16.94    <-- DIS
     169      22.42160838      22.42137194       1.054E-05     17.04    <-- DIS
     170      22.42147323      22.42124150       1.034E-05     17.14    <-- DIS
     171      22.42134140      22.42111424       1.013E-05     17.24    <-- DIS
     172      22.42121278      22.42099009       9.932E-06     17.34    <-- DIS
     173      22.42108730      22.42086897       9.738E-06     17.45    <-- DIS
     174      22.42096487      22.42075078       9.549E-06     17.55    <-- DIS
     175      22.42084541      22.42063547       9.364E-06     17.65    <-- DIS
     176      22.42072884      22.42052294       9.183E-06     17.75    <-- DIS
     177      22.42061509      22.42041313       9.008E-06     17.85    <-- DIS
     178      22.42050407      22.42030597       8.836E-06     17.95    <-- DIS
     179      22.42039573      22.42020139       8.668E-06     18.06    <-- DIS
     180      22.42028999      22.42009931       8.505E-06     18.16    <-- DIS
     181      22.42018678      22.41999968       8.345E-06     18.26    <-- DIS
     182      22.42008603      22.41990243       8.189E-06     18.36    <-- DIS
     183      22.41998769      22.41980750       8.037E-06     18.46    <-- DIS
     184      22.41989168      22.41971483       7.888E-06     18.56    <-- DIS
     185      22.41979796      22.41962436       7.743E-06     18.66    <-- DIS
     186      22.41970645      22.41953604       7.601E-06     18.77    <-- DIS
     187      22.41961711      22.41944980       7.462E-06     18.87    <-- DIS
     188      22.41952987      22.41936560       7.327E-06     18.97    <-- DIS
     189      22.41944469      22.41928339       7.195E-06     19.07    <-- DIS
     190      22.41936150      22.41920311       7.065E-06     19.17    <-- DIS
     191      22.41928027      22.41912471       6.939E-06     19.27    <-- DIS
     192      22.41920094      22.41904815       6.815E-06     19.38    <-- DIS
     193      22.41912345      22.41897338       6.694E-06     19.48    <-- DIS
     194      22.41904778      22.41890035       6.576E-06     19.58    <-- DIS
     195      22.41897386      22.41882902       6.460E-06     19.68    <-- DIS
     196      22.41890165      22.41875935       6.347E-06     19.78    <-- DIS
     197      22.41883112      22.41869130       6.237E-06     19.88    <-- DIS
     198      22.41876221      22.41862482       6.129E-06     19.99    <-- DIS
     199      22.41869490      22.41855988       6.023E-06     20.09    <-- DIS
     200      22.41862913      22.41849643       5.919E-06     20.19    <-- DIS

     <<< Warning: Maximum number of disentanglement iterations reached >>>
          <<< Disentanglement convergence criteria not satisfied >>>

        Final Omega_I    22.41849643 (Ang^2)

 +----------------------------------------------------------------------------+

 Time to disentangle bands     23.571 (sec)

 done

 
 *------------------------------- WANNIERISE ---------------------------------*
 +--------------------------------------------------------------------+<-- CONV
 | Iter  Delta Spread     RMS Gradient      Spread (Ang^2)      Time  |<-- CONV
 +--------------------------------------------------------------------+<-- CONV
 
 ------------------------------------------------------------------------------
 Initial State
  WF centre and spread    1  (  0.000000, -0.000000, -0.000000 )     1.44903637
  WF centre and spread    2  ( -0.000000,  0.000000, -0.000000 )     1.44903637
  WF centre and spread    3  (  0.000000, -0.000000, -0.000000 )     1.41788875
  WF centre and spread    4  ( -0.000000,  0.000000,  0.000000 )     1.41788875
  WF centre and spread    5  (  0.000000,  0.000000,  0.000000 )     1.44126677
  WF centre and spread    6  ( -0.000000,  0.000000,  0.000000 )     1.44126677
  WF centre and spread    7  ( -0.000000, -0.000000, -0.000000 )     1.44126677
  WF centre and spread    8  (  0.000000,  0.000000, -0.000000 )     1.44126677
  WF centre and spread    9  (  0.000000, -0.000000, -0.000000 )     0.50102843
  WF centre and spread   10  ( -0.000000,  0.000000, -0.000000 )     0.50102843
  WF centre and spread   11  ( -0.000000, -0.000000, -0.000000 )     0.46803699
  WF centre and spread   12  (  0.000000,  0.000000, -0.000000 )     0.46803699
  WF centre and spread   13  (  0.000000, -0.000000,  0.000000 )     0.46803699
  WF centre and spread   14  ( -0.000000,  0.000000,  0.000000 )     0.46803699
  WF centre and spread   15  ( -0.000000, -0.000000, -0.000000 )     0.49646043
  WF centre and spread   16  (  0.000000,  0.000000, -0.000000 )     0.49646043
  WF centre and spread   17  (  0.000000, -0.000000, -0.000000 )     0.48847181
  WF centre and spread   18  ( -0.000000,  0.000000, -0.000000 )     0.48847181
  WF centre and spread   19  (  1.364072,  1.364071,  1.889492 )     1.74728772
  WF centre and spread   20  (  1.364072,  1.364072,  1.889492 )     1.74728772
  WF centre and spread   21  (  1.364072,  1.364071,  1.889492 )     1.74757936
  WF centre and spread   22  (  1.364072,  1.364072,  1.889492 )     1.74757936
  WF centre and spread   23  (  1.364072,  1.364071,  1.889492 )     1.69856674
  WF centre and spread   24  (  1.364072,  1.364072,  1.889492 )     1.69856674
  WF centre and spread   25  (  1.364072,  1.364072,  1.889492 )     1.69856674
  WF centre and spread   26  (  1.364071,  1.364072,  1.889492 )     1.69856674
  WF centre and spread   27  (  1.364072,  1.364071,  1.889492 )     0.85976110
  WF centre and spread   28  (  1.364072,  1.364072,  1.889492 )     0.85976110
  WF centre and spread   29  (  1.364072,  1.364071,  1.889492 )     0.85345840
  WF centre and spread   30  (  1.364072,  1.364072,  1.889492 )     0.85345840
  WF centre and spread   31  (  1.364072,  1.364071,  1.889492 )     0.85345840
  WF centre and spread   32  (  1.364072,  1.364072,  1.889492 )     0.85345840
  WF centre and spread   33  (  1.364072,  1.364071,  1.889492 )     0.82406120
  WF centre and spread   34  (  1.364072,  1.364072,  1.889492 )     0.82406120
  WF centre and spread   35  (  1.364072,  1.364071,  1.889492 )     0.86956366
  WF centre and spread   36  (  1.364072,  1.364072,  1.889492 )     0.86956366
  Sum of centres and spreads ( 24.553287, 24.553287, 34.010856 )    38.64759327
 
      0     0.386E+02     0.0000000000       38.6475932606      21.72  <-- CONV
        O_D=      0.0000000 O_OD=     16.2290968 O_TOT=     38.6475933 <-- SPRD
 ------------------------------------------------------------------------------
 Final State
  WF centre and spread    1  (  0.000000, -0.000000, -0.000000 )     1.44903637
  WF centre and spread    2  ( -0.000000,  0.000000, -0.000000 )     1.44903637
  WF centre and spread    3  (  0.000000, -0.000000, -0.000000 )     1.41788875
  WF centre and spread    4  ( -0.000000,  0.000000,  0.000000 )     1.41788875
  WF centre and spread    5  (  0.000000,  0.000000,  0.000000 )     1.44126677
  WF centre and spread    6  ( -0.000000,  0.000000,  0.000000 )     1.44126677
  WF centre and spread    7  ( -0.000000, -0.000000, -0.000000 )     1.44126677
  WF centre and spread    8  (  0.000000,  0.000000, -0.000000 )     1.44126677
  WF centre and spread    9  (  0.000000, -0.000000, -0.000000 )     0.50102843
  WF centre and spread   10  ( -0.000000,  0.000000, -0.000000 )     0.50102843
  WF centre and spread   11  ( -0.000000, -0.000000, -0.000000 )     0.46803699
  WF centre and spread   12  (  0.000000,  0.000000, -0.000000 )     0.46803699
  WF centre and spread   13  (  0.000000, -0.000000,  0.000000 )     0.46803699
  WF centre and spread   14  ( -0.000000,  0.000000,  0.000000 )     0.46803699
  WF centre and spread   15  ( -0.000000, -0.000000, -0.000000 )     0.49646043
  WF centre and spread   16  (  0.000000,  0.000000, -0.000000 )     0.49646043
  WF centre and spread   17  (  0.000000, -0.000000, -0.000000 )     0.48847181
  WF centre and spread   18  ( -0.000000,  0.000000, -0.000000 )     0.48847181
  WF centre and spread   19  (  1.364072,  1.364071,  1.889492 )     1.74728772
  WF centre and spread   20  (  1.364072,  1.364072,  1.889492 )     1.74728772
  WF centre and spread   21  (  1.364072,  1.364071,  1.889492 )     1.74757936
  WF centre and spread   22  (  1.364072,  1.364072,  1.889492 )     1.74757936
  WF centre and spread   23  (  1.364072,  1.364071,  1.889492 )     1.69856674
  WF centre and spread   24  (  1.364072,  1.364072,  1.889492 )     1.69856674
  WF centre and spread   25  (  1.364072,  1.364072,  1.889492 )     1.69856674
  WF centre and spread   26  (  1.364071,  1.364072,  1.889492 )     1.69856674
  WF centre and spread   27  (  1.364072,  1.364071,  1.889492 )     0.85976110
  WF centre and spread   28  (  1.364072,  1.364072,  1.889492 )     0.85976110
  WF centre and spread   29  (  1.364072,  1.364071,  1.889492 )     0.85345840
  WF centre and spread   30  (  1.364072,  1.364072,  1.889492 )     0.85345840
  WF centre and spread   31  (  1.364072,  1.364071,  1.889492 )     0.85345840
  WF centre and spread   32  (  1.364072,  1.364072,  1.889492 )     0.85345840
  WF centre and spread   33  (  1.364072,  1.364071,  1.889492 )     0.82406120
  WF centre and spread   34  (  1.364072,  1.364072,  1.889492 )     0.82406120
  WF centre and spread   35  (  1.364072,  1.364071,  1.889492 )     0.86956366
  WF centre and spread   36  (  1.364072,  1.364072,  1.889492 )     0.86956366
  Sum of centres and spreads ( 24.553287, 24.553287, 34.010856 )    38.64759327
 
         Spreads (Ang^2)       Omega I      =    22.418496431
        ================       Omega D      =     0.000000000
                               Omega OD     =    16.229096830
    Final Spread (Ang^2)       Omega Total  =    38.647593261
 ------------------------------------------------------------------------------
 Time for wannierise            0.109 (sec)

 done

 *---------------------------------------------------------------------------*
 |                               PLOTTING                                    |
 *---------------------------------------------------------------------------*
 
 
 Calculating interpolated band-structure
 
 Time to calculate interpolated band structure      35.746 (sec)
 
 Time for plotting            101.157 (sec)
 Total Execution Time         141.088 (sec)

 *===========================================================================*
 |                             TIMING INFORMATION                            |
 *===========================================================================*
 |    Tag                                                Ncalls      Time (s)|
 |---------------------------------------------------------------------------|
 |kmesh: get                                        :         1         0.235|
 |overlap: allocate                                 :         1         0.005|
 |overlap: read                                     :         1        15.806|
 |dis: main                                         :         1        23.571|
 |wann: main                                        :         1         0.109|
 |plot: main                                        :         1       101.157|
 *---------------------------------------------------------------------------*
 
 All done: wannier90 exiting
