File written on 23May2024 at 15:10:19 

calc_only_A  :  F

begin real_lattice
   2.7281430   0.0000000   0.0000000
   0.0000000   2.7281430   0.0000000
   0.0000000   0.0000000   3.7789840
end real_lattice

begin recip_lattice
   2.3030997   0.0000000   0.0000000
   0.0000000   2.3030997   0.0000000
   0.0000000   0.0000000   1.6626652
end recip_lattice

begin kpoints
   486
    0.00000000    0.00000000    0.00000000
    0.00000000    0.00000000    0.16666667
    0.00000000    0.00000000    0.33333333
    0.00000000    0.00000000   -0.50000000
    0.00000000    0.00000000   -0.33333333
    0.00000000    0.00000000   -0.16666667
    0.00000000    0.11111111    0.00000000
    0.00000000    0.11111111    0.16666667
    0.00000000    0.11111111    0.33333333
    0.00000000    0.11111111   -0.50000000
    0.00000000    0.11111111   -0.33333333
    0.00000000    0.11111111   -0.16666667
    0.00000000    0.22222222    0.00000000
    0.00000000    0.22222222    0.16666667
    0.00000000    0.22222222    0.33333333
    0.00000000    0.22222222   -0.50000000
    0.00000000    0.22222222   -0.33333333
    0.00000000    0.22222222   -0.16666667
    0.00000000    0.33333333    0.00000000
    0.00000000    0.33333333    0.16666667
    0.00000000    0.33333333    0.33333333
    0.00000000    0.33333333   -0.50000000
    0.00000000    0.33333333   -0.33333333
    0.00000000    0.33333333   -0.16666667
    0.00000000    0.44444444    0.00000000
    0.00000000    0.44444444    0.16666667
    0.00000000    0.44444444    0.33333333
    0.00000000    0.44444444   -0.50000000
    0.00000000    0.44444444   -0.33333333
    0.00000000    0.44444444   -0.16666667
    0.00000000   -0.44444444    0.00000000
    0.00000000   -0.44444444    0.16666667
    0.00000000   -0.44444444    0.33333333
    0.00000000   -0.44444444   -0.50000000
    0.00000000   -0.44444444   -0.33333333
    0.00000000   -0.44444444   -0.16666667
    0.00000000   -0.33333333    0.00000000
    0.00000000   -0.33333333    0.16666667
    0.00000000   -0.33333333    0.33333333
    0.00000000   -0.33333333   -0.50000000
    0.00000000   -0.33333333   -0.33333333
    0.00000000   -0.33333333   -0.16666667
    0.00000000   -0.22222222    0.00000000
    0.00000000   -0.22222222    0.16666667
    0.00000000   -0.22222222    0.33333333
    0.00000000   -0.22222222   -0.50000000
    0.00000000   -0.22222222   -0.33333333
    0.00000000   -0.22222222   -0.16666667
    0.00000000   -0.11111111    0.00000000
    0.00000000   -0.11111111    0.16666667
    0.00000000   -0.11111111    0.33333333
    0.00000000   -0.11111111   -0.50000000
    0.00000000   -0.11111111   -0.33333333
    0.00000000   -0.11111111   -0.16666667
    0.11111111    0.00000000    0.00000000
    0.11111111    0.00000000    0.16666667
    0.11111111    0.00000000    0.33333333
    0.11111111    0.00000000   -0.50000000
    0.11111111    0.00000000   -0.33333333
    0.11111111    0.00000000   -0.16666667
    0.11111111    0.11111111    0.00000000
    0.11111111    0.11111111    0.16666667
    0.11111111    0.11111111    0.33333333
    0.11111111    0.11111111   -0.50000000
    0.11111111    0.11111111   -0.33333333
    0.11111111    0.11111111   -0.16666667
    0.11111111    0.22222222    0.00000000
    0.11111111    0.22222222    0.16666667
    0.11111111    0.22222222    0.33333333
    0.11111111    0.22222222   -0.50000000
    0.11111111    0.22222222   -0.33333333
    0.11111111    0.22222222   -0.16666667
    0.11111111    0.33333333    0.00000000
    0.11111111    0.33333333    0.16666667
    0.11111111    0.33333333    0.33333333
    0.11111111    0.33333333   -0.50000000
    0.11111111    0.33333333   -0.33333333
    0.11111111    0.33333333   -0.16666667
    0.11111111    0.44444444    0.00000000
    0.11111111    0.44444444    0.16666667
    0.11111111    0.44444444    0.33333333
    0.11111111    0.44444444   -0.50000000
    0.11111111    0.44444444   -0.33333333
    0.11111111    0.44444444   -0.16666667
    0.11111111   -0.44444444    0.00000000
    0.11111111   -0.44444444    0.16666667
    0.11111111   -0.44444444    0.33333333
    0.11111111   -0.44444444   -0.50000000
    0.11111111   -0.44444444   -0.33333333
    0.11111111   -0.44444444   -0.16666667
    0.11111111   -0.33333333    0.00000000
    0.11111111   -0.33333333    0.16666667
    0.11111111   -0.33333333    0.33333333
    0.11111111   -0.33333333   -0.50000000
    0.11111111   -0.33333333   -0.33333333
    0.11111111   -0.33333333   -0.16666667
    0.11111111   -0.22222222    0.00000000
    0.11111111   -0.22222222    0.16666667
    0.11111111   -0.22222222    0.33333333
    0.11111111   -0.22222222   -0.50000000
    0.11111111   -0.22222222   -0.33333333
    0.11111111   -0.22222222   -0.16666667
    0.11111111   -0.11111111    0.00000000
    0.11111111   -0.11111111    0.16666667
    0.11111111   -0.11111111    0.33333333
    0.11111111   -0.11111111   -0.50000000
    0.11111111   -0.11111111   -0.33333333
    0.11111111   -0.11111111   -0.16666667
    0.22222222    0.00000000    0.00000000
    0.22222222    0.00000000    0.16666667
    0.22222222    0.00000000    0.33333333
    0.22222222    0.00000000   -0.50000000
    0.22222222    0.00000000   -0.33333333
    0.22222222    0.00000000   -0.16666667
    0.22222222    0.11111111    0.00000000
    0.22222222    0.11111111    0.16666667
    0.22222222    0.11111111    0.33333333
    0.22222222    0.11111111   -0.50000000
    0.22222222    0.11111111   -0.33333333
    0.22222222    0.11111111   -0.16666667
    0.22222222    0.22222222    0.00000000
    0.22222222    0.22222222    0.16666667
    0.22222222    0.22222222    0.33333333
    0.22222222    0.22222222   -0.50000000
    0.22222222    0.22222222   -0.33333333
    0.22222222    0.22222222   -0.16666667
    0.22222222    0.33333333    0.00000000
    0.22222222    0.33333333    0.16666667
    0.22222222    0.33333333    0.33333333
    0.22222222    0.33333333   -0.50000000
    0.22222222    0.33333333   -0.33333333
    0.22222222    0.33333333   -0.16666667
    0.22222222    0.44444444    0.00000000
    0.22222222    0.44444444    0.16666667
    0.22222222    0.44444444    0.33333333
    0.22222222    0.44444444   -0.50000000
    0.22222222    0.44444444   -0.33333333
    0.22222222    0.44444444   -0.16666667
    0.22222222   -0.44444444    0.00000000
    0.22222222   -0.44444444    0.16666667
    0.22222222   -0.44444444    0.33333333
    0.22222222   -0.44444444   -0.50000000
    0.22222222   -0.44444444   -0.33333333
    0.22222222   -0.44444444   -0.16666667
    0.22222222   -0.33333333    0.00000000
    0.22222222   -0.33333333    0.16666667
    0.22222222   -0.33333333    0.33333333
    0.22222222   -0.33333333   -0.50000000
    0.22222222   -0.33333333   -0.33333333
    0.22222222   -0.33333333   -0.16666667
    0.22222222   -0.22222222    0.00000000
    0.22222222   -0.22222222    0.16666667
    0.22222222   -0.22222222    0.33333333
    0.22222222   -0.22222222   -0.50000000
    0.22222222   -0.22222222   -0.33333333
    0.22222222   -0.22222222   -0.16666667
    0.22222222   -0.11111111    0.00000000
    0.22222222   -0.11111111    0.16666667
    0.22222222   -0.11111111    0.33333333
    0.22222222   -0.11111111   -0.50000000
    0.22222222   -0.11111111   -0.33333333
    0.22222222   -0.11111111   -0.16666667
    0.33333333    0.00000000    0.00000000
    0.33333333    0.00000000    0.16666667
    0.33333333    0.00000000    0.33333333
    0.33333333    0.00000000   -0.50000000
    0.33333333    0.00000000   -0.33333333
    0.33333333    0.00000000   -0.16666667
    0.33333333    0.11111111    0.00000000
    0.33333333    0.11111111    0.16666667
    0.33333333    0.11111111    0.33333333
    0.33333333    0.11111111   -0.50000000
    0.33333333    0.11111111   -0.33333333
    0.33333333    0.11111111   -0.16666667
    0.33333333    0.22222222    0.00000000
    0.33333333    0.22222222    0.16666667
    0.33333333    0.22222222    0.33333333
    0.33333333    0.22222222   -0.50000000
    0.33333333    0.22222222   -0.33333333
    0.33333333    0.22222222   -0.16666667
    0.33333333    0.33333333    0.00000000
    0.33333333    0.33333333    0.16666667
    0.33333333    0.33333333    0.33333333
    0.33333333    0.33333333   -0.50000000
    0.33333333    0.33333333   -0.33333333
    0.33333333    0.33333333   -0.16666667
    0.33333333    0.44444444    0.00000000
    0.33333333    0.44444444    0.16666667
    0.33333333    0.44444444    0.33333333
    0.33333333    0.44444444   -0.50000000
    0.33333333    0.44444444   -0.33333333
    0.33333333    0.44444444   -0.16666667
    0.33333333   -0.44444444    0.00000000
    0.33333333   -0.44444444    0.16666667
    0.33333333   -0.44444444    0.33333333
    0.33333333   -0.44444444   -0.50000000
    0.33333333   -0.44444444   -0.33333333
    0.33333333   -0.44444444   -0.16666667
    0.33333333   -0.33333333    0.00000000
    0.33333333   -0.33333333    0.16666667
    0.33333333   -0.33333333    0.33333333
    0.33333333   -0.33333333   -0.50000000
    0.33333333   -0.33333333   -0.33333333
    0.33333333   -0.33333333   -0.16666667
    0.33333333   -0.22222222    0.00000000
    0.33333333   -0.22222222    0.16666667
    0.33333333   -0.22222222    0.33333333
    0.33333333   -0.22222222   -0.50000000
    0.33333333   -0.22222222   -0.33333333
    0.33333333   -0.22222222   -0.16666667
    0.33333333   -0.11111111    0.00000000
    0.33333333   -0.11111111    0.16666667
    0.33333333   -0.11111111    0.33333333
    0.33333333   -0.11111111   -0.50000000
    0.33333333   -0.11111111   -0.33333333
    0.33333333   -0.11111111   -0.16666667
    0.44444444    0.00000000    0.00000000
    0.44444444    0.00000000    0.16666667
    0.44444444    0.00000000    0.33333333
    0.44444444    0.00000000   -0.50000000
    0.44444444    0.00000000   -0.33333333
    0.44444444    0.00000000   -0.16666667
    0.44444444    0.11111111    0.00000000
    0.44444444    0.11111111    0.16666667
    0.44444444    0.11111111    0.33333333
    0.44444444    0.11111111   -0.50000000
    0.44444444    0.11111111   -0.33333333
    0.44444444    0.11111111   -0.16666667
    0.44444444    0.22222222    0.00000000
    0.44444444    0.22222222    0.16666667
    0.44444444    0.22222222    0.33333333
    0.44444444    0.22222222   -0.50000000
    0.44444444    0.22222222   -0.33333333
    0.44444444    0.22222222   -0.16666667
    0.44444444    0.33333333    0.00000000
    0.44444444    0.33333333    0.16666667
    0.44444444    0.33333333    0.33333333
    0.44444444    0.33333333   -0.50000000
    0.44444444    0.33333333   -0.33333333
    0.44444444    0.33333333   -0.16666667
    0.44444444    0.44444444    0.00000000
    0.44444444    0.44444444    0.16666667
    0.44444444    0.44444444    0.33333333
    0.44444444    0.44444444   -0.50000000
    0.44444444    0.44444444   -0.33333333
    0.44444444    0.44444444   -0.16666667
    0.44444444   -0.44444444    0.00000000
    0.44444444   -0.44444444    0.16666667
    0.44444444   -0.44444444    0.33333333
    0.44444444   -0.44444444   -0.50000000
    0.44444444   -0.44444444   -0.33333333
    0.44444444   -0.44444444   -0.16666667
    0.44444444   -0.33333333    0.00000000
    0.44444444   -0.33333333    0.16666667
    0.44444444   -0.33333333    0.33333333
    0.44444444   -0.33333333   -0.50000000
    0.44444444   -0.33333333   -0.33333333
    0.44444444   -0.33333333   -0.16666667
    0.44444444   -0.22222222    0.00000000
    0.44444444   -0.22222222    0.16666667
    0.44444444   -0.22222222    0.33333333
    0.44444444   -0.22222222   -0.50000000
    0.44444444   -0.22222222   -0.33333333
    0.44444444   -0.22222222   -0.16666667
    0.44444444   -0.11111111    0.00000000
    0.44444444   -0.11111111    0.16666667
    0.44444444   -0.11111111    0.33333333
    0.44444444   -0.11111111   -0.50000000
    0.44444444   -0.11111111   -0.33333333
    0.44444444   -0.11111111   -0.16666667
   -0.44444444    0.00000000    0.00000000
   -0.44444444    0.00000000    0.16666667
   -0.44444444    0.00000000    0.33333333
   -0.44444444    0.00000000   -0.50000000
   -0.44444444    0.00000000   -0.33333333
   -0.44444444    0.00000000   -0.16666667
   -0.44444444    0.11111111    0.00000000
   -0.44444444    0.11111111    0.16666667
   -0.44444444    0.11111111    0.33333333
   -0.44444444    0.11111111   -0.50000000
   -0.44444444    0.11111111   -0.33333333
   -0.44444444    0.11111111   -0.16666667
   -0.44444444    0.22222222    0.00000000
   -0.44444444    0.22222222    0.16666667
   -0.44444444    0.22222222    0.33333333
   -0.44444444    0.22222222   -0.50000000
   -0.44444444    0.22222222   -0.33333333
   -0.44444444    0.22222222   -0.16666667
   -0.44444444    0.33333333    0.00000000
   -0.44444444    0.33333333    0.16666667
   -0.44444444    0.33333333    0.33333333
   -0.44444444    0.33333333   -0.50000000
   -0.44444444    0.33333333   -0.33333333
   -0.44444444    0.33333333   -0.16666667
   -0.44444444    0.44444444    0.00000000
   -0.44444444    0.44444444    0.16666667
   -0.44444444    0.44444444    0.33333333
   -0.44444444    0.44444444   -0.50000000
   -0.44444444    0.44444444   -0.33333333
   -0.44444444    0.44444444   -0.16666667
   -0.44444444   -0.44444444    0.00000000
   -0.44444444   -0.44444444    0.16666667
   -0.44444444   -0.44444444    0.33333333
   -0.44444444   -0.44444444   -0.50000000
   -0.44444444   -0.44444444   -0.33333333
   -0.44444444   -0.44444444   -0.16666667
   -0.44444444   -0.33333333    0.00000000
   -0.44444444   -0.33333333    0.16666667
   -0.44444444   -0.33333333    0.33333333
   -0.44444444   -0.33333333   -0.50000000
   -0.44444444   -0.33333333   -0.33333333
   -0.44444444   -0.33333333   -0.16666667
   -0.44444444   -0.22222222    0.00000000
   -0.44444444   -0.22222222    0.16666667
   -0.44444444   -0.22222222    0.33333333
   -0.44444444   -0.22222222   -0.50000000
   -0.44444444   -0.22222222   -0.33333333
   -0.44444444   -0.22222222   -0.16666667
   -0.44444444   -0.11111111    0.00000000
   -0.44444444   -0.11111111    0.16666667
   -0.44444444   -0.11111111    0.33333333
   -0.44444444   -0.11111111   -0.50000000
   -0.44444444   -0.11111111   -0.33333333
   -0.44444444   -0.11111111   -0.16666667
   -0.33333333    0.00000000    0.00000000
   -0.33333333    0.00000000    0.16666667
   -0.33333333    0.00000000    0.33333333
   -0.33333333    0.00000000   -0.50000000
   -0.33333333    0.00000000   -0.33333333
   -0.33333333    0.00000000   -0.16666667
   -0.33333333    0.11111111    0.00000000
   -0.33333333    0.11111111    0.16666667
   -0.33333333    0.11111111    0.33333333
   -0.33333333    0.11111111   -0.50000000
   -0.33333333    0.11111111   -0.33333333
   -0.33333333    0.11111111   -0.16666667
   -0.33333333    0.22222222    0.00000000
   -0.33333333    0.22222222    0.16666667
   -0.33333333    0.22222222    0.33333333
   -0.33333333    0.22222222   -0.50000000
   -0.33333333    0.22222222   -0.33333333
   -0.33333333    0.22222222   -0.16666667
   -0.33333333    0.33333333    0.00000000
   -0.33333333    0.33333333    0.16666667
   -0.33333333    0.33333333    0.33333333
   -0.33333333    0.33333333   -0.50000000
   -0.33333333    0.33333333   -0.33333333
   -0.33333333    0.33333333   -0.16666667
   -0.33333333    0.44444444    0.00000000
   -0.33333333    0.44444444    0.16666667
   -0.33333333    0.44444444    0.33333333
   -0.33333333    0.44444444   -0.50000000
   -0.33333333    0.44444444   -0.33333333
   -0.33333333    0.44444444   -0.16666667
   -0.33333333   -0.44444444    0.00000000
   -0.33333333   -0.44444444    0.16666667
   -0.33333333   -0.44444444    0.33333333
   -0.33333333   -0.44444444   -0.50000000
   -0.33333333   -0.44444444   -0.33333333
   -0.33333333   -0.44444444   -0.16666667
   -0.33333333   -0.33333333    0.00000000
   -0.33333333   -0.33333333    0.16666667
   -0.33333333   -0.33333333    0.33333333
   -0.33333333   -0.33333333   -0.50000000
   -0.33333333   -0.33333333   -0.33333333
   -0.33333333   -0.33333333   -0.16666667
   -0.33333333   -0.22222222    0.00000000
   -0.33333333   -0.22222222    0.16666667
   -0.33333333   -0.22222222    0.33333333
   -0.33333333   -0.22222222   -0.50000000
   -0.33333333   -0.22222222   -0.33333333
   -0.33333333   -0.22222222   -0.16666667
   -0.33333333   -0.11111111    0.00000000
   -0.33333333   -0.11111111    0.16666667
   -0.33333333   -0.11111111    0.33333333
   -0.33333333   -0.11111111   -0.50000000
   -0.33333333   -0.11111111   -0.33333333
   -0.33333333   -0.11111111   -0.16666667
   -0.22222222    0.00000000    0.00000000
   -0.22222222    0.00000000    0.16666667
   -0.22222222    0.00000000    0.33333333
   -0.22222222    0.00000000   -0.50000000
   -0.22222222    0.00000000   -0.33333333
   -0.22222222    0.00000000   -0.16666667
   -0.22222222    0.11111111    0.00000000
   -0.22222222    0.11111111    0.16666667
   -0.22222222    0.11111111    0.33333333
   -0.22222222    0.11111111   -0.50000000
   -0.22222222    0.11111111   -0.33333333
   -0.22222222    0.11111111   -0.16666667
   -0.22222222    0.22222222    0.00000000
   -0.22222222    0.22222222    0.16666667
   -0.22222222    0.22222222    0.33333333
   -0.22222222    0.22222222   -0.50000000
   -0.22222222    0.22222222   -0.33333333
   -0.22222222    0.22222222   -0.16666667
   -0.22222222    0.33333333    0.00000000
   -0.22222222    0.33333333    0.16666667
   -0.22222222    0.33333333    0.33333333
   -0.22222222    0.33333333   -0.50000000
   -0.22222222    0.33333333   -0.33333333
   -0.22222222    0.33333333   -0.16666667
   -0.22222222    0.44444444    0.00000000
   -0.22222222    0.44444444    0.16666667
   -0.22222222    0.44444444    0.33333333
   -0.22222222    0.44444444   -0.50000000
   -0.22222222    0.44444444   -0.33333333
   -0.22222222    0.44444444   -0.16666667
   -0.22222222   -0.44444444    0.00000000
   -0.22222222   -0.44444444    0.16666667
   -0.22222222   -0.44444444    0.33333333
   -0.22222222   -0.44444444   -0.50000000
   -0.22222222   -0.44444444   -0.33333333
   -0.22222222   -0.44444444   -0.16666667
   -0.22222222   -0.33333333    0.00000000
   -0.22222222   -0.33333333    0.16666667
   -0.22222222   -0.33333333    0.33333333
   -0.22222222   -0.33333333   -0.50000000
   -0.22222222   -0.33333333   -0.33333333
   -0.22222222   -0.33333333   -0.16666667
   -0.22222222   -0.22222222    0.00000000
   -0.22222222   -0.22222222    0.16666667
   -0.22222222   -0.22222222    0.33333333
   -0.22222222   -0.22222222   -0.50000000
   -0.22222222   -0.22222222   -0.33333333
   -0.22222222   -0.22222222   -0.16666667
   -0.22222222   -0.11111111    0.00000000
   -0.22222222   -0.11111111    0.16666667
   -0.22222222   -0.11111111    0.33333333
   -0.22222222   -0.11111111   -0.50000000
   -0.22222222   -0.11111111   -0.33333333
   -0.22222222   -0.11111111   -0.16666667
   -0.11111111    0.00000000    0.00000000
   -0.11111111    0.00000000    0.16666667
   -0.11111111    0.00000000    0.33333333
   -0.11111111    0.00000000   -0.50000000
   -0.11111111    0.00000000   -0.33333333
   -0.11111111    0.00000000   -0.16666667
   -0.11111111    0.11111111    0.00000000
   -0.11111111    0.11111111    0.16666667
   -0.11111111    0.11111111    0.33333333
   -0.11111111    0.11111111   -0.50000000
   -0.11111111    0.11111111   -0.33333333
   -0.11111111    0.11111111   -0.16666667
   -0.11111111    0.22222222    0.00000000
   -0.11111111    0.22222222    0.16666667
   -0.11111111    0.22222222    0.33333333
   -0.11111111    0.22222222   -0.50000000
   -0.11111111    0.22222222   -0.33333333
   -0.11111111    0.22222222   -0.16666667
   -0.11111111    0.33333333    0.00000000
   -0.11111111    0.33333333    0.16666667
   -0.11111111    0.33333333    0.33333333
   -0.11111111    0.33333333   -0.50000000
   -0.11111111    0.33333333   -0.33333333
   -0.11111111    0.33333333   -0.16666667
   -0.11111111    0.44444444    0.00000000
   -0.11111111    0.44444444    0.16666667
   -0.11111111    0.44444444    0.33333333
   -0.11111111    0.44444444   -0.50000000
   -0.11111111    0.44444444   -0.33333333
   -0.11111111    0.44444444   -0.16666667
   -0.11111111   -0.44444444    0.00000000
   -0.11111111   -0.44444444    0.16666667
   -0.11111111   -0.44444444    0.33333333
   -0.11111111   -0.44444444   -0.50000000
   -0.11111111   -0.44444444   -0.33333333
   -0.11111111   -0.44444444   -0.16666667
   -0.11111111   -0.33333333    0.00000000
   -0.11111111   -0.33333333    0.16666667
   -0.11111111   -0.33333333    0.33333333
   -0.11111111   -0.33333333   -0.50000000
   -0.11111111   -0.33333333   -0.33333333
   -0.11111111   -0.33333333   -0.16666667
   -0.11111111   -0.22222222    0.00000000
   -0.11111111   -0.22222222    0.16666667
   -0.11111111   -0.22222222    0.33333333
   -0.11111111   -0.22222222   -0.50000000
   -0.11111111   -0.22222222   -0.33333333
   -0.11111111   -0.22222222   -0.16666667
   -0.11111111   -0.11111111    0.00000000
   -0.11111111   -0.11111111    0.16666667
   -0.11111111   -0.11111111    0.33333333
   -0.11111111   -0.11111111   -0.50000000
   -0.11111111   -0.11111111   -0.33333333
   -0.11111111   -0.11111111   -0.16666667
end kpoints

begin spinor_projections
    36
   0.00000    0.00000    0.00000     0  1  1
    0.0000000  0.0000000  1.0000000   1.0000000  0.0000000  0.0000000    1.00
    1   1.0000000  0.0000000  0.0000000
   0.00000    0.00000    0.00000     0  1  1
    0.0000000  0.0000000  1.0000000   1.0000000  0.0000000  0.0000000    1.00
   -1   1.0000000  0.0000000  0.0000000
   0.00000    0.00000    0.00000     1  1  1
    0.0000000  0.0000000  1.0000000   1.0000000  0.0000000  0.0000000    1.00
    1   1.0000000  0.0000000  0.0000000
   0.00000    0.00000    0.00000     1  1  1
    0.0000000  0.0000000  1.0000000   1.0000000  0.0000000  0.0000000    1.00
   -1   1.0000000  0.0000000  0.0000000
   0.00000    0.00000    0.00000     1  2  1
    0.0000000  0.0000000  1.0000000   1.0000000  0.0000000  0.0000000    1.00
    1   1.0000000  0.0000000  0.0000000
   0.00000    0.00000    0.00000     1  2  1
    0.0000000  0.0000000  1.0000000   1.0000000  0.0000000  0.0000000    1.00
   -1   1.0000000  0.0000000  0.0000000
   0.00000    0.00000    0.00000     1  3  1
    0.0000000  0.0000000  1.0000000   1.0000000  0.0000000  0.0000000    1.00
    1   1.0000000  0.0000000  0.0000000
   0.00000    0.00000    0.00000     1  3  1
    0.0000000  0.0000000  1.0000000   1.0000000  0.0000000  0.0000000    1.00
   -1   1.0000000  0.0000000  0.0000000
   0.00000    0.00000    0.00000     2  1  1
    0.0000000  0.0000000  1.0000000   1.0000000  0.0000000  0.0000000    1.00
    1   1.0000000  0.0000000  0.0000000
   0.00000    0.00000    0.00000     2  1  1
    0.0000000  0.0000000  1.0000000   1.0000000  0.0000000  0.0000000    1.00
   -1   1.0000000  0.0000000  0.0000000
   0.00000    0.00000    0.00000     2  2  1
    0.0000000  0.0000000  1.0000000   1.0000000  0.0000000  0.0000000    1.00
    1   1.0000000  0.0000000  0.0000000
   0.00000    0.00000    0.00000     2  2  1
    0.0000000  0.0000000  1.0000000   1.0000000  0.0000000  0.0000000    1.00
   -1   1.0000000  0.0000000  0.0000000
   0.00000    0.00000    0.00000     2  3  1
    0.0000000  0.0000000  1.0000000   1.0000000  0.0000000  0.0000000    1.00
    1   1.0000000  0.0000000  0.0000000
   0.00000    0.00000    0.00000     2  3  1
    0.0000000  0.0000000  1.0000000   1.0000000  0.0000000  0.0000000    1.00
   -1   1.0000000  0.0000000  0.0000000
   0.00000    0.00000    0.00000     2  4  1
    0.0000000  0.0000000  1.0000000   1.0000000  0.0000000  0.0000000    1.00
    1   1.0000000  0.0000000  0.0000000
   0.00000    0.00000    0.00000     2  4  1
    0.0000000  0.0000000  1.0000000   1.0000000  0.0000000  0.0000000    1.00
   -1   1.0000000  0.0000000  0.0000000
   0.00000    0.00000    0.00000     2  5  1
    0.0000000  0.0000000  1.0000000   1.0000000  0.0000000  0.0000000    1.00
    1   1.0000000  0.0000000  0.0000000
   0.00000    0.00000    0.00000     2  5  1
    0.0000000  0.0000000  1.0000000   1.0000000  0.0000000  0.0000000    1.00
   -1   1.0000000  0.0000000  0.0000000
   0.50000    0.50000    0.50000     0  1  1
    0.0000000  0.0000000  1.0000000   1.0000000  0.0000000  0.0000000    1.00
    1   1.0000000  0.0000000  0.0000000
   0.50000    0.50000    0.50000     0  1  1
    0.0000000  0.0000000  1.0000000   1.0000000  0.0000000  0.0000000    1.00
   -1   1.0000000  0.0000000  0.0000000
   0.50000    0.50000    0.50000     1  1  1
    0.0000000  0.0000000  1.0000000   1.0000000  0.0000000  0.0000000    1.00
    1   1.0000000  0.0000000  0.0000000
   0.50000    0.50000    0.50000     1  1  1
    0.0000000  0.0000000  1.0000000   1.0000000  0.0000000  0.0000000    1.00
   -1   1.0000000  0.0000000  0.0000000
   0.50000    0.50000    0.50000     1  2  1
    0.0000000  0.0000000  1.0000000   1.0000000  0.0000000  0.0000000    1.00
    1   1.0000000  0.0000000  0.0000000
   0.50000    0.50000    0.50000     1  2  1
    0.0000000  0.0000000  1.0000000   1.0000000  0.0000000  0.0000000    1.00
   -1   1.0000000  0.0000000  0.0000000
   0.50000    0.50000    0.50000     1  3  1
    0.0000000  0.0000000  1.0000000   1.0000000  0.0000000  0.0000000    1.00
    1   1.0000000  0.0000000  0.0000000
   0.50000    0.50000    0.50000     1  3  1
    0.0000000  0.0000000  1.0000000   1.0000000  0.0000000  0.0000000    1.00
   -1   1.0000000  0.0000000  0.0000000
   0.50000    0.50000    0.50000     2  1  1
    0.0000000  0.0000000  1.0000000   1.0000000  0.0000000  0.0000000    1.00
    1   1.0000000  0.0000000  0.0000000
   0.50000    0.50000    0.50000     2  1  1
    0.0000000  0.0000000  1.0000000   1.0000000  0.0000000  0.0000000    1.00
   -1   1.0000000  0.0000000  0.0000000
   0.50000    0.50000    0.50000     2  2  1
    0.0000000  0.0000000  1.0000000   1.0000000  0.0000000  0.0000000    1.00
    1   1.0000000  0.0000000  0.0000000
   0.50000    0.50000    0.50000     2  2  1
    0.0000000  0.0000000  1.0000000   1.0000000  0.0000000  0.0000000    1.00
   -1   1.0000000  0.0000000  0.0000000
   0.50000    0.50000    0.50000     2  3  1
    0.0000000  0.0000000  1.0000000   1.0000000  0.0000000  0.0000000    1.00
    1   1.0000000  0.0000000  0.0000000
   0.50000    0.50000    0.50000     2  3  1
    0.0000000  0.0000000  1.0000000   1.0000000  0.0000000  0.0000000    1.00
   -1   1.0000000  0.0000000  0.0000000
   0.50000    0.50000    0.50000     2  4  1
    0.0000000  0.0000000  1.0000000   1.0000000  0.0000000  0.0000000    1.00
    1   1.0000000  0.0000000  0.0000000
   0.50000    0.50000    0.50000     2  4  1
    0.0000000  0.0000000  1.0000000   1.0000000  0.0000000  0.0000000    1.00
   -1   1.0000000  0.0000000  0.0000000
   0.50000    0.50000    0.50000     2  5  1
    0.0000000  0.0000000  1.0000000   1.0000000  0.0000000  0.0000000    1.00
    1   1.0000000  0.0000000  0.0000000
   0.50000    0.50000    0.50000     2  5  1
    0.0000000  0.0000000  1.0000000   1.0000000  0.0000000  0.0000000    1.00
   -1   1.0000000  0.0000000  0.0000000
end spinor_projections

begin nnkpts
   6
     1     7      0   0   0
     1    49      0   0   0
     1    55      0   0   0
     1   433      0   0   0
     1     2      0   0   0
     1     6      0   0   0
     2     8      0   0   0
     2    50      0   0   0
     2    56      0   0   0
     2   434      0   0   0
     2     1      0   0   0
     2     3      0   0   0
     3     9      0   0   0
     3    51      0   0   0
     3    57      0   0   0
     3   435      0   0   0
     3     2      0   0   0
     3     4      0   0   1
     4    10      0   0   0
     4    52      0   0   0
     4    58      0   0   0
     4   436      0   0   0
     4     5      0   0   0
     4     3      0   0  -1
     5    11      0   0   0
     5    53      0   0   0
     5    59      0   0   0
     5   437      0   0   0
     5     4      0   0   0
     5     6      0   0   0
     6    12      0   0   0
     6    54      0   0   0
     6    60      0   0   0
     6   438      0   0   0
     6     1      0   0   0
     6     5      0   0   0
     7     1      0   0   0
     7    13      0   0   0
     7    61      0   0   0
     7   439      0   0   0
     7     8      0   0   0
     7    12      0   0   0
     8     2      0   0   0
     8    14      0   0   0
     8    62      0   0   0
     8   440      0   0   0
     8     7      0   0   0
     8     9      0   0   0
     9     3      0   0   0
     9    15      0   0   0
     9    63      0   0   0
     9   441      0   0   0
     9     8      0   0   0
     9    10      0   0   1
    10     4      0   0   0
    10    16      0   0   0
    10    64      0   0   0
    10   442      0   0   0
    10    11      0   0   0
    10     9      0   0  -1
    11     5      0   0   0
    11    17      0   0   0
    11    65      0   0   0
    11   443      0   0   0
    11    10      0   0   0
    11    12      0   0   0
    12     6      0   0   0
    12    18      0   0   0
    12    66      0   0   0
    12   444      0   0   0
    12     7      0   0   0
    12    11      0   0   0
    13     7      0   0   0
    13    19      0   0   0
    13    67      0   0   0
    13   445      0   0   0
    13    14      0   0   0
    13    18      0   0   0
    14     8      0   0   0
    14    20      0   0   0
    14    68      0   0   0
    14   446      0   0   0
    14    13      0   0   0
    14    15      0   0   0
    15     9      0   0   0
    15    21      0   0   0
    15    69      0   0   0
    15   447      0   0   0
    15    14      0   0   0
    15    16      0   0   1
    16    10      0   0   0
    16    22      0   0   0
    16    70      0   0   0
    16   448      0   0   0
    16    17      0   0   0
    16    15      0   0  -1
    17    11      0   0   0
    17    23      0   0   0
    17    71      0   0   0
    17   449      0   0   0
    17    16      0   0   0
    17    18      0   0   0
    18    12      0   0   0
    18    24      0   0   0
    18    72      0   0   0
    18   450      0   0   0
    18    13      0   0   0
    18    17      0   0   0
    19    13      0   0   0
    19    25      0   0   0
    19    73      0   0   0
    19   451      0   0   0
    19    20      0   0   0
    19    24      0   0   0
    20    14      0   0   0
    20    26      0   0   0
    20    74      0   0   0
    20   452      0   0   0
    20    19      0   0   0
    20    21      0   0   0
    21    15      0   0   0
    21    27      0   0   0
    21    75      0   0   0
    21   453      0   0   0
    21    20      0   0   0
    21    22      0   0   1
    22    16      0   0   0
    22    28      0   0   0
    22    76      0   0   0
    22   454      0   0   0
    22    23      0   0   0
    22    21      0   0  -1
    23    17      0   0   0
    23    29      0   0   0
    23    77      0   0   0
    23   455      0   0   0
    23    22      0   0   0
    23    24      0   0   0
    24    18      0   0   0
    24    30      0   0   0
    24    78      0   0   0
    24   456      0   0   0
    24    19      0   0   0
    24    23      0   0   0
    25    19      0   0   0
    25    79      0   0   0
    25   457      0   0   0
    25    31      0   1   0
    25    26      0   0   0
    25    30      0   0   0
    26    20      0   0   0
    26    80      0   0   0
    26   458      0   0   0
    26    32      0   1   0
    26    25      0   0   0
    26    27      0   0   0
    27    21      0   0   0
    27    81      0   0   0
    27   459      0   0   0
    27    33      0   1   0
    27    26      0   0   0
    27    28      0   0   1
    28    22      0   0   0
    28    82      0   0   0
    28   460      0   0   0
    28    34      0   1   0
    28    29      0   0   0
    28    27      0   0  -1
    29    23      0   0   0
    29    83      0   0   0
    29   461      0   0   0
    29    35      0   1   0
    29    28      0   0   0
    29    30      0   0   0
    30    24      0   0   0
    30    84      0   0   0
    30   462      0   0   0
    30    36      0   1   0
    30    25      0   0   0
    30    29      0   0   0
    31    37      0   0   0
    31    85      0   0   0
    31   463      0   0   0
    31    25      0  -1   0
    31    32      0   0   0
    31    36      0   0   0
    32    38      0   0   0
    32    86      0   0   0
    32   464      0   0   0
    32    26      0  -1   0
    32    31      0   0   0
    32    33      0   0   0
    33    39      0   0   0
    33    87      0   0   0
    33   465      0   0   0
    33    27      0  -1   0
    33    32      0   0   0
    33    34      0   0   1
    34    40      0   0   0
    34    88      0   0   0
    34   466      0   0   0
    34    28      0  -1   0
    34    35      0   0   0
    34    33      0   0  -1
    35    41      0   0   0
    35    89      0   0   0
    35   467      0   0   0
    35    29      0  -1   0
    35    34      0   0   0
    35    36      0   0   0
    36    42      0   0   0
    36    90      0   0   0
    36   468      0   0   0
    36    30      0  -1   0
    36    31      0   0   0
    36    35      0   0   0
    37    31      0   0   0
    37    43      0   0   0
    37    91      0   0   0
    37   469      0   0   0
    37    38      0   0   0
    37    42      0   0   0
    38    32      0   0   0
    38    44      0   0   0
    38    92      0   0   0
    38   470      0   0   0
    38    37      0   0   0
    38    39      0   0   0
    39    33      0   0   0
    39    45      0   0   0
    39    93      0   0   0
    39   471      0   0   0
    39    38      0   0   0
    39    40      0   0   1
    40    34      0   0   0
    40    46      0   0   0
    40    94      0   0   0
    40   472      0   0   0
    40    41      0   0   0
    40    39      0   0  -1
    41    35      0   0   0
    41    47      0   0   0
    41    95      0   0   0
    41   473      0   0   0
    41    40      0   0   0
    41    42      0   0   0
    42    36      0   0   0
    42    48      0   0   0
    42    96      0   0   0
    42   474      0   0   0
    42    37      0   0   0
    42    41      0   0   0
    43    37      0   0   0
    43    49      0   0   0
    43    97      0   0   0
    43   475      0   0   0
    43    44      0   0   0
    43    48      0   0   0
    44    38      0   0   0
    44    50      0   0   0
    44    98      0   0   0
    44   476      0   0   0
    44    43      0   0   0
    44    45      0   0   0
    45    39      0   0   0
    45    51      0   0   0
    45    99      0   0   0
    45   477      0   0   0
    45    44      0   0   0
    45    46      0   0   1
    46    40      0   0   0
    46    52      0   0   0
    46   100      0   0   0
    46   478      0   0   0
    46    47      0   0   0
    46    45      0   0  -1
    47    41      0   0   0
    47    53      0   0   0
    47   101      0   0   0
    47   479      0   0   0
    47    46      0   0   0
    47    48      0   0   0
    48    42      0   0   0
    48    54      0   0   0
    48   102      0   0   0
    48   480      0   0   0
    48    43      0   0   0
    48    47      0   0   0
    49     1      0   0   0
    49    43      0   0   0
    49   103      0   0   0
    49   481      0   0   0
    49    50      0   0   0
    49    54      0   0   0
    50     2      0   0   0
    50    44      0   0   0
    50   104      0   0   0
    50   482      0   0   0
    50    49      0   0   0
    50    51      0   0   0
    51     3      0   0   0
    51    45      0   0   0
    51   105      0   0   0
    51   483      0   0   0
    51    50      0   0   0
    51    52      0   0   1
    52     4      0   0   0
    52    46      0   0   0
    52   106      0   0   0
    52   484      0   0   0
    52    53      0   0   0
    52    51      0   0  -1
    53     5      0   0   0
    53    47      0   0   0
    53   107      0   0   0
    53   485      0   0   0
    53    52      0   0   0
    53    54      0   0   0
    54     6      0   0   0
    54    48      0   0   0
    54   108      0   0   0
    54   486      0   0   0
    54    49      0   0   0
    54    53      0   0   0
    55     1      0   0   0
    55    61      0   0   0
    55   103      0   0   0
    55   109      0   0   0
    55    56      0   0   0
    55    60      0   0   0
    56     2      0   0   0
    56    62      0   0   0
    56   104      0   0   0
    56   110      0   0   0
    56    55      0   0   0
    56    57      0   0   0
    57     3      0   0   0
    57    63      0   0   0
    57   105      0   0   0
    57   111      0   0   0
    57    56      0   0   0
    57    58      0   0   1
    58     4      0   0   0
    58    64      0   0   0
    58   106      0   0   0
    58   112      0   0   0
    58    59      0   0   0
    58    57      0   0  -1
    59     5      0   0   0
    59    65      0   0   0
    59   107      0   0   0
    59   113      0   0   0
    59    58      0   0   0
    59    60      0   0   0
    60     6      0   0   0
    60    66      0   0   0
    60   108      0   0   0
    60   114      0   0   0
    60    55      0   0   0
    60    59      0   0   0
    61     7      0   0   0
    61    55      0   0   0
    61    67      0   0   0
    61   115      0   0   0
    61    62      0   0   0
    61    66      0   0   0
    62     8      0   0   0
    62    56      0   0   0
    62    68      0   0   0
    62   116      0   0   0
    62    61      0   0   0
    62    63      0   0   0
    63     9      0   0   0
    63    57      0   0   0
    63    69      0   0   0
    63   117      0   0   0
    63    62      0   0   0
    63    64      0   0   1
    64    10      0   0   0
    64    58      0   0   0
    64    70      0   0   0
    64   118      0   0   0
    64    65      0   0   0
    64    63      0   0  -1
    65    11      0   0   0
    65    59      0   0   0
    65    71      0   0   0
    65   119      0   0   0
    65    64      0   0   0
    65    66      0   0   0
    66    12      0   0   0
    66    60      0   0   0
    66    72      0   0   0
    66   120      0   0   0
    66    61      0   0   0
    66    65      0   0   0
    67    13      0   0   0
    67    61      0   0   0
    67    73      0   0   0
    67   121      0   0   0
    67    68      0   0   0
    67    72      0   0   0
    68    14      0   0   0
    68    62      0   0   0
    68    74      0   0   0
    68   122      0   0   0
    68    67      0   0   0
    68    69      0   0   0
    69    15      0   0   0
    69    63      0   0   0
    69    75      0   0   0
    69   123      0   0   0
    69    68      0   0   0
    69    70      0   0   1
    70    16      0   0   0
    70    64      0   0   0
    70    76      0   0   0
    70   124      0   0   0
    70    71      0   0   0
    70    69      0   0  -1
    71    17      0   0   0
    71    65      0   0   0
    71    77      0   0   0
    71   125      0   0   0
    71    70      0   0   0
    71    72      0   0   0
    72    18      0   0   0
    72    66      0   0   0
    72    78      0   0   0
    72   126      0   0   0
    72    67      0   0   0
    72    71      0   0   0
    73    19      0   0   0
    73    67      0   0   0
    73    79      0   0   0
    73   127      0   0   0
    73    74      0   0   0
    73    78      0   0   0
    74    20      0   0   0
    74    68      0   0   0
    74    80      0   0   0
    74   128      0   0   0
    74    73      0   0   0
    74    75      0   0   0
    75    21      0   0   0
    75    69      0   0   0
    75    81      0   0   0
    75   129      0   0   0
    75    74      0   0   0
    75    76      0   0   1
    76    22      0   0   0
    76    70      0   0   0
    76    82      0   0   0
    76   130      0   0   0
    76    77      0   0   0
    76    75      0   0  -1
    77    23      0   0   0
    77    71      0   0   0
    77    83      0   0   0
    77   131      0   0   0
    77    76      0   0   0
    77    78      0   0   0
    78    24      0   0   0
    78    72      0   0   0
    78    84      0   0   0
    78   132      0   0   0
    78    73      0   0   0
    78    77      0   0   0
    79    25      0   0   0
    79    73      0   0   0
    79   133      0   0   0
    79    85      0   1   0
    79    80      0   0   0
    79    84      0   0   0
    80    26      0   0   0
    80    74      0   0   0
    80   134      0   0   0
    80    86      0   1   0
    80    79      0   0   0
    80    81      0   0   0
    81    27      0   0   0
    81    75      0   0   0
    81   135      0   0   0
    81    87      0   1   0
    81    80      0   0   0
    81    82      0   0   1
    82    28      0   0   0
    82    76      0   0   0
    82   136      0   0   0
    82    88      0   1   0
    82    83      0   0   0
    82    81      0   0  -1
    83    29      0   0   0
    83    77      0   0   0
    83   137      0   0   0
    83    89      0   1   0
    83    82      0   0   0
    83    84      0   0   0
    84    30      0   0   0
    84    78      0   0   0
    84   138      0   0   0
    84    90      0   1   0
    84    79      0   0   0
    84    83      0   0   0
    85    31      0   0   0
    85    91      0   0   0
    85   139      0   0   0
    85    79      0  -1   0
    85    86      0   0   0
    85    90      0   0   0
    86    32      0   0   0
    86    92      0   0   0
    86   140      0   0   0
    86    80      0  -1   0
    86    85      0   0   0
    86    87      0   0   0
    87    33      0   0   0
    87    93      0   0   0
    87   141      0   0   0
    87    81      0  -1   0
    87    86      0   0   0
    87    88      0   0   1
    88    34      0   0   0
    88    94      0   0   0
    88   142      0   0   0
    88    82      0  -1   0
    88    89      0   0   0
    88    87      0   0  -1
    89    35      0   0   0
    89    95      0   0   0
    89   143      0   0   0
    89    83      0  -1   0
    89    88      0   0   0
    89    90      0   0   0
    90    36      0   0   0
    90    96      0   0   0
    90   144      0   0   0
    90    84      0  -1   0
    90    85      0   0   0
    90    89      0   0   0
    91    37      0   0   0
    91    85      0   0   0
    91    97      0   0   0
    91   145      0   0   0
    91    92      0   0   0
    91    96      0   0   0
    92    38      0   0   0
    92    86      0   0   0
    92    98      0   0   0
    92   146      0   0   0
    92    91      0   0   0
    92    93      0   0   0
    93    39      0   0   0
    93    87      0   0   0
    93    99      0   0   0
    93   147      0   0   0
    93    92      0   0   0
    93    94      0   0   1
    94    40      0   0   0
    94    88      0   0   0
    94   100      0   0   0
    94   148      0   0   0
    94    95      0   0   0
    94    93      0   0  -1
    95    41      0   0   0
    95    89      0   0   0
    95   101      0   0   0
    95   149      0   0   0
    95    94      0   0   0
    95    96      0   0   0
    96    42      0   0   0
    96    90      0   0   0
    96   102      0   0   0
    96   150      0   0   0
    96    91      0   0   0
    96    95      0   0   0
    97    43      0   0   0
    97    91      0   0   0
    97   103      0   0   0
    97   151      0   0   0
    97    98      0   0   0
    97   102      0   0   0
    98    44      0   0   0
    98    92      0   0   0
    98   104      0   0   0
    98   152      0   0   0
    98    97      0   0   0
    98    99      0   0   0
    99    45      0   0   0
    99    93      0   0   0
    99   105      0   0   0
    99   153      0   0   0
    99    98      0   0   0
    99   100      0   0   1
   100    46      0   0   0
   100    94      0   0   0
   100   106      0   0   0
   100   154      0   0   0
   100   101      0   0   0
   100    99      0   0  -1
   101    47      0   0   0
   101    95      0   0   0
   101   107      0   0   0
   101   155      0   0   0
   101   100      0   0   0
   101   102      0   0   0
   102    48      0   0   0
   102    96      0   0   0
   102   108      0   0   0
   102   156      0   0   0
   102    97      0   0   0
   102   101      0   0   0
   103    49      0   0   0
   103    55      0   0   0
   103    97      0   0   0
   103   157      0   0   0
   103   104      0   0   0
   103   108      0   0   0
   104    50      0   0   0
   104    56      0   0   0
   104    98      0   0   0
   104   158      0   0   0
   104   103      0   0   0
   104   105      0   0   0
   105    51      0   0   0
   105    57      0   0   0
   105    99      0   0   0
   105   159      0   0   0
   105   104      0   0   0
   105   106      0   0   1
   106    52      0   0   0
   106    58      0   0   0
   106   100      0   0   0
   106   160      0   0   0
   106   107      0   0   0
   106   105      0   0  -1
   107    53      0   0   0
   107    59      0   0   0
   107   101      0   0   0
   107   161      0   0   0
   107   106      0   0   0
   107   108      0   0   0
   108    54      0   0   0
   108    60      0   0   0
   108   102      0   0   0
   108   162      0   0   0
   108   103      0   0   0
   108   107      0   0   0
   109    55      0   0   0
   109   115      0   0   0
   109   157      0   0   0
   109   163      0   0   0
   109   110      0   0   0
   109   114      0   0   0
   110    56      0   0   0
   110   116      0   0   0
   110   158      0   0   0
   110   164      0   0   0
   110   109      0   0   0
   110   111      0   0   0
   111    57      0   0   0
   111   117      0   0   0
   111   159      0   0   0
   111   165      0   0   0
   111   110      0   0   0
   111   112      0   0   1
   112    58      0   0   0
   112   118      0   0   0
   112   160      0   0   0
   112   166      0   0   0
   112   113      0   0   0
   112   111      0   0  -1
   113    59      0   0   0
   113   119      0   0   0
   113   161      0   0   0
   113   167      0   0   0
   113   112      0   0   0
   113   114      0   0   0
   114    60      0   0   0
   114   120      0   0   0
   114   162      0   0   0
   114   168      0   0   0
   114   109      0   0   0
   114   113      0   0   0
   115    61      0   0   0
   115   109      0   0   0
   115   121      0   0   0
   115   169      0   0   0
   115   116      0   0   0
   115   120      0   0   0
   116    62      0   0   0
   116   110      0   0   0
   116   122      0   0   0
   116   170      0   0   0
   116   115      0   0   0
   116   117      0   0   0
   117    63      0   0   0
   117   111      0   0   0
   117   123      0   0   0
   117   171      0   0   0
   117   116      0   0   0
   117   118      0   0   1
   118    64      0   0   0
   118   112      0   0   0
   118   124      0   0   0
   118   172      0   0   0
   118   119      0   0   0
   118   117      0   0  -1
   119    65      0   0   0
   119   113      0   0   0
   119   125      0   0   0
   119   173      0   0   0
   119   118      0   0   0
   119   120      0   0   0
   120    66      0   0   0
   120   114      0   0   0
   120   126      0   0   0
   120   174      0   0   0
   120   115      0   0   0
   120   119      0   0   0
   121    67      0   0   0
   121   115      0   0   0
   121   127      0   0   0
   121   175      0   0   0
   121   122      0   0   0
   121   126      0   0   0
   122    68      0   0   0
   122   116      0   0   0
   122   128      0   0   0
   122   176      0   0   0
   122   121      0   0   0
   122   123      0   0   0
   123    69      0   0   0
   123   117      0   0   0
   123   129      0   0   0
   123   177      0   0   0
   123   122      0   0   0
   123   124      0   0   1
   124    70      0   0   0
   124   118      0   0   0
   124   130      0   0   0
   124   178      0   0   0
   124   125      0   0   0
   124   123      0   0  -1
   125    71      0   0   0
   125   119      0   0   0
   125   131      0   0   0
   125   179      0   0   0
   125   124      0   0   0
   125   126      0   0   0
   126    72      0   0   0
   126   120      0   0   0
   126   132      0   0   0
   126   180      0   0   0
   126   121      0   0   0
   126   125      0   0   0
   127    73      0   0   0
   127   121      0   0   0
   127   133      0   0   0
   127   181      0   0   0
   127   128      0   0   0
   127   132      0   0   0
   128    74      0   0   0
   128   122      0   0   0
   128   134      0   0   0
   128   182      0   0   0
   128   127      0   0   0
   128   129      0   0   0
   129    75      0   0   0
   129   123      0   0   0
   129   135      0   0   0
   129   183      0   0   0
   129   128      0   0   0
   129   130      0   0   1
   130    76      0   0   0
   130   124      0   0   0
   130   136      0   0   0
   130   184      0   0   0
   130   131      0   0   0
   130   129      0   0  -1
   131    77      0   0   0
   131   125      0   0   0
   131   137      0   0   0
   131   185      0   0   0
   131   130      0   0   0
   131   132      0   0   0
   132    78      0   0   0
   132   126      0   0   0
   132   138      0   0   0
   132   186      0   0   0
   132   127      0   0   0
   132   131      0   0   0
   133    79      0   0   0
   133   127      0   0   0
   133   187      0   0   0
   133   139      0   1   0
   133   134      0   0   0
   133   138      0   0   0
   134    80      0   0   0
   134   128      0   0   0
   134   188      0   0   0
   134   140      0   1   0
   134   133      0   0   0
   134   135      0   0   0
   135    81      0   0   0
   135   129      0   0   0
   135   189      0   0   0
   135   141      0   1   0
   135   134      0   0   0
   135   136      0   0   1
   136    82      0   0   0
   136   130      0   0   0
   136   190      0   0   0
   136   142      0   1   0
   136   137      0   0   0
   136   135      0   0  -1
   137    83      0   0   0
   137   131      0   0   0
   137   191      0   0   0
   137   143      0   1   0
   137   136      0   0   0
   137   138      0   0   0
   138    84      0   0   0
   138   132      0   0   0
   138   192      0   0   0
   138   144      0   1   0
   138   133      0   0   0
   138   137      0   0   0
   139    85      0   0   0
   139   145      0   0   0
   139   193      0   0   0
   139   133      0  -1   0
   139   140      0   0   0
   139   144      0   0   0
   140    86      0   0   0
   140   146      0   0   0
   140   194      0   0   0
   140   134      0  -1   0
   140   139      0   0   0
   140   141      0   0   0
   141    87      0   0   0
   141   147      0   0   0
   141   195      0   0   0
   141   135      0  -1   0
   141   140      0   0   0
   141   142      0   0   1
   142    88      0   0   0
   142   148      0   0   0
   142   196      0   0   0
   142   136      0  -1   0
   142   143      0   0   0
   142   141      0   0  -1
   143    89      0   0   0
   143   149      0   0   0
   143   197      0   0   0
   143   137      0  -1   0
   143   142      0   0   0
   143   144      0   0   0
   144    90      0   0   0
   144   150      0   0   0
   144   198      0   0   0
   144   138      0  -1   0
   144   139      0   0   0
   144   143      0   0   0
   145    91      0   0   0
   145   139      0   0   0
   145   151      0   0   0
   145   199      0   0   0
   145   146      0   0   0
   145   150      0   0   0
   146    92      0   0   0
   146   140      0   0   0
   146   152      0   0   0
   146   200      0   0   0
   146   145      0   0   0
   146   147      0   0   0
   147    93      0   0   0
   147   141      0   0   0
   147   153      0   0   0
   147   201      0   0   0
   147   146      0   0   0
   147   148      0   0   1
   148    94      0   0   0
   148   142      0   0   0
   148   154      0   0   0
   148   202      0   0   0
   148   149      0   0   0
   148   147      0   0  -1
   149    95      0   0   0
   149   143      0   0   0
   149   155      0   0   0
   149   203      0   0   0
   149   148      0   0   0
   149   150      0   0   0
   150    96      0   0   0
   150   144      0   0   0
   150   156      0   0   0
   150   204      0   0   0
   150   145      0   0   0
   150   149      0   0   0
   151    97      0   0   0
   151   145      0   0   0
   151   157      0   0   0
   151   205      0   0   0
   151   152      0   0   0
   151   156      0   0   0
   152    98      0   0   0
   152   146      0   0   0
   152   158      0   0   0
   152   206      0   0   0
   152   151      0   0   0
   152   153      0   0   0
   153    99      0   0   0
   153   147      0   0   0
   153   159      0   0   0
   153   207      0   0   0
   153   152      0   0   0
   153   154      0   0   1
   154   100      0   0   0
   154   148      0   0   0
   154   160      0   0   0
   154   208      0   0   0
   154   155      0   0   0
   154   153      0   0  -1
   155   101      0   0   0
   155   149      0   0   0
   155   161      0   0   0
   155   209      0   0   0
   155   154      0   0   0
   155   156      0   0   0
   156   102      0   0   0
   156   150      0   0   0
   156   162      0   0   0
   156   210      0   0   0
   156   151      0   0   0
   156   155      0   0   0
   157   103      0   0   0
   157   109      0   0   0
   157   151      0   0   0
   157   211      0   0   0
   157   158      0   0   0
   157   162      0   0   0
   158   104      0   0   0
   158   110      0   0   0
   158   152      0   0   0
   158   212      0   0   0
   158   157      0   0   0
   158   159      0   0   0
   159   105      0   0   0
   159   111      0   0   0
   159   153      0   0   0
   159   213      0   0   0
   159   158      0   0   0
   159   160      0   0   1
   160   106      0   0   0
   160   112      0   0   0
   160   154      0   0   0
   160   214      0   0   0
   160   161      0   0   0
   160   159      0   0  -1
   161   107      0   0   0
   161   113      0   0   0
   161   155      0   0   0
   161   215      0   0   0
   161   160      0   0   0
   161   162      0   0   0
   162   108      0   0   0
   162   114      0   0   0
   162   156      0   0   0
   162   216      0   0   0
   162   157      0   0   0
   162   161      0   0   0
   163   109      0   0   0
   163   169      0   0   0
   163   211      0   0   0
   163   217      0   0   0
   163   164      0   0   0
   163   168      0   0   0
   164   110      0   0   0
   164   170      0   0   0
   164   212      0   0   0
   164   218      0   0   0
   164   163      0   0   0
   164   165      0   0   0
   165   111      0   0   0
   165   171      0   0   0
   165   213      0   0   0
   165   219      0   0   0
   165   164      0   0   0
   165   166      0   0   1
   166   112      0   0   0
   166   172      0   0   0
   166   214      0   0   0
   166   220      0   0   0
   166   167      0   0   0
   166   165      0   0  -1
   167   113      0   0   0
   167   173      0   0   0
   167   215      0   0   0
   167   221      0   0   0
   167   166      0   0   0
   167   168      0   0   0
   168   114      0   0   0
   168   174      0   0   0
   168   216      0   0   0
   168   222      0   0   0
   168   163      0   0   0
   168   167      0   0   0
   169   115      0   0   0
   169   163      0   0   0
   169   175      0   0   0
   169   223      0   0   0
   169   170      0   0   0
   169   174      0   0   0
   170   116      0   0   0
   170   164      0   0   0
   170   176      0   0   0
   170   224      0   0   0
   170   169      0   0   0
   170   171      0   0   0
   171   117      0   0   0
   171   165      0   0   0
   171   177      0   0   0
   171   225      0   0   0
   171   170      0   0   0
   171   172      0   0   1
   172   118      0   0   0
   172   166      0   0   0
   172   178      0   0   0
   172   226      0   0   0
   172   173      0   0   0
   172   171      0   0  -1
   173   119      0   0   0
   173   167      0   0   0
   173   179      0   0   0
   173   227      0   0   0
   173   172      0   0   0
   173   174      0   0   0
   174   120      0   0   0
   174   168      0   0   0
   174   180      0   0   0
   174   228      0   0   0
   174   169      0   0   0
   174   173      0   0   0
   175   121      0   0   0
   175   169      0   0   0
   175   181      0   0   0
   175   229      0   0   0
   175   176      0   0   0
   175   180      0   0   0
   176   122      0   0   0
   176   170      0   0   0
   176   182      0   0   0
   176   230      0   0   0
   176   175      0   0   0
   176   177      0   0   0
   177   123      0   0   0
   177   171      0   0   0
   177   183      0   0   0
   177   231      0   0   0
   177   176      0   0   0
   177   178      0   0   1
   178   124      0   0   0
   178   172      0   0   0
   178   184      0   0   0
   178   232      0   0   0
   178   179      0   0   0
   178   177      0   0  -1
   179   125      0   0   0
   179   173      0   0   0
   179   185      0   0   0
   179   233      0   0   0
   179   178      0   0   0
   179   180      0   0   0
   180   126      0   0   0
   180   174      0   0   0
   180   186      0   0   0
   180   234      0   0   0
   180   175      0   0   0
   180   179      0   0   0
   181   127      0   0   0
   181   175      0   0   0
   181   187      0   0   0
   181   235      0   0   0
   181   182      0   0   0
   181   186      0   0   0
   182   128      0   0   0
   182   176      0   0   0
   182   188      0   0   0
   182   236      0   0   0
   182   181      0   0   0
   182   183      0   0   0
   183   129      0   0   0
   183   177      0   0   0
   183   189      0   0   0
   183   237      0   0   0
   183   182      0   0   0
   183   184      0   0   1
   184   130      0   0   0
   184   178      0   0   0
   184   190      0   0   0
   184   238      0   0   0
   184   185      0   0   0
   184   183      0   0  -1
   185   131      0   0   0
   185   179      0   0   0
   185   191      0   0   0
   185   239      0   0   0
   185   184      0   0   0
   185   186      0   0   0
   186   132      0   0   0
   186   180      0   0   0
   186   192      0   0   0
   186   240      0   0   0
   186   181      0   0   0
   186   185      0   0   0
   187   133      0   0   0
   187   181      0   0   0
   187   241      0   0   0
   187   193      0   1   0
   187   188      0   0   0
   187   192      0   0   0
   188   134      0   0   0
   188   182      0   0   0
   188   242      0   0   0
   188   194      0   1   0
   188   187      0   0   0
   188   189      0   0   0
   189   135      0   0   0
   189   183      0   0   0
   189   243      0   0   0
   189   195      0   1   0
   189   188      0   0   0
   189   190      0   0   1
   190   136      0   0   0
   190   184      0   0   0
   190   244      0   0   0
   190   196      0   1   0
   190   191      0   0   0
   190   189      0   0  -1
   191   137      0   0   0
   191   185      0   0   0
   191   245      0   0   0
   191   197      0   1   0
   191   190      0   0   0
   191   192      0   0   0
   192   138      0   0   0
   192   186      0   0   0
   192   246      0   0   0
   192   198      0   1   0
   192   187      0   0   0
   192   191      0   0   0
   193   139      0   0   0
   193   199      0   0   0
   193   247      0   0   0
   193   187      0  -1   0
   193   194      0   0   0
   193   198      0   0   0
   194   140      0   0   0
   194   200      0   0   0
   194   248      0   0   0
   194   188      0  -1   0
   194   193      0   0   0
   194   195      0   0   0
   195   141      0   0   0
   195   201      0   0   0
   195   249      0   0   0
   195   189      0  -1   0
   195   194      0   0   0
   195   196      0   0   1
   196   142      0   0   0
   196   202      0   0   0
   196   250      0   0   0
   196   190      0  -1   0
   196   197      0   0   0
   196   195      0   0  -1
   197   143      0   0   0
   197   203      0   0   0
   197   251      0   0   0
   197   191      0  -1   0
   197   196      0   0   0
   197   198      0   0   0
   198   144      0   0   0
   198   204      0   0   0
   198   252      0   0   0
   198   192      0  -1   0
   198   193      0   0   0
   198   197      0   0   0
   199   145      0   0   0
   199   193      0   0   0
   199   205      0   0   0
   199   253      0   0   0
   199   200      0   0   0
   199   204      0   0   0
   200   146      0   0   0
   200   194      0   0   0
   200   206      0   0   0
   200   254      0   0   0
   200   199      0   0   0
   200   201      0   0   0
   201   147      0   0   0
   201   195      0   0   0
   201   207      0   0   0
   201   255      0   0   0
   201   200      0   0   0
   201   202      0   0   1
   202   148      0   0   0
   202   196      0   0   0
   202   208      0   0   0
   202   256      0   0   0
   202   203      0   0   0
   202   201      0   0  -1
   203   149      0   0   0
   203   197      0   0   0
   203   209      0   0   0
   203   257      0   0   0
   203   202      0   0   0
   203   204      0   0   0
   204   150      0   0   0
   204   198      0   0   0
   204   210      0   0   0
   204   258      0   0   0
   204   199      0   0   0
   204   203      0   0   0
   205   151      0   0   0
   205   199      0   0   0
   205   211      0   0   0
   205   259      0   0   0
   205   206      0   0   0
   205   210      0   0   0
   206   152      0   0   0
   206   200      0   0   0
   206   212      0   0   0
   206   260      0   0   0
   206   205      0   0   0
   206   207      0   0   0
   207   153      0   0   0
   207   201      0   0   0
   207   213      0   0   0
   207   261      0   0   0
   207   206      0   0   0
   207   208      0   0   1
   208   154      0   0   0
   208   202      0   0   0
   208   214      0   0   0
   208   262      0   0   0
   208   209      0   0   0
   208   207      0   0  -1
   209   155      0   0   0
   209   203      0   0   0
   209   215      0   0   0
   209   263      0   0   0
   209   208      0   0   0
   209   210      0   0   0
   210   156      0   0   0
   210   204      0   0   0
   210   216      0   0   0
   210   264      0   0   0
   210   205      0   0   0
   210   209      0   0   0
   211   157      0   0   0
   211   163      0   0   0
   211   205      0   0   0
   211   265      0   0   0
   211   212      0   0   0
   211   216      0   0   0
   212   158      0   0   0
   212   164      0   0   0
   212   206      0   0   0
   212   266      0   0   0
   212   211      0   0   0
   212   213      0   0   0
   213   159      0   0   0
   213   165      0   0   0
   213   207      0   0   0
   213   267      0   0   0
   213   212      0   0   0
   213   214      0   0   1
   214   160      0   0   0
   214   166      0   0   0
   214   208      0   0   0
   214   268      0   0   0
   214   215      0   0   0
   214   213      0   0  -1
   215   161      0   0   0
   215   167      0   0   0
   215   209      0   0   0
   215   269      0   0   0
   215   214      0   0   0
   215   216      0   0   0
   216   162      0   0   0
   216   168      0   0   0
   216   210      0   0   0
   216   270      0   0   0
   216   211      0   0   0
   216   215      0   0   0
   217   163      0   0   0
   217   223      0   0   0
   217   265      0   0   0
   217   271      1   0   0
   217   218      0   0   0
   217   222      0   0   0
   218   164      0   0   0
   218   224      0   0   0
   218   266      0   0   0
   218   272      1   0   0
   218   217      0   0   0
   218   219      0   0   0
   219   165      0   0   0
   219   225      0   0   0
   219   267      0   0   0
   219   273      1   0   0
   219   218      0   0   0
   219   220      0   0   1
   220   166      0   0   0
   220   226      0   0   0
   220   268      0   0   0
   220   274      1   0   0
   220   221      0   0   0
   220   219      0   0  -1
   221   167      0   0   0
   221   227      0   0   0
   221   269      0   0   0
   221   275      1   0   0
   221   220      0   0   0
   221   222      0   0   0
   222   168      0   0   0
   222   228      0   0   0
   222   270      0   0   0
   222   276      1   0   0
   222   217      0   0   0
   222   221      0   0   0
   223   169      0   0   0
   223   217      0   0   0
   223   229      0   0   0
   223   277      1   0   0
   223   224      0   0   0
   223   228      0   0   0
   224   170      0   0   0
   224   218      0   0   0
   224   230      0   0   0
   224   278      1   0   0
   224   223      0   0   0
   224   225      0   0   0
   225   171      0   0   0
   225   219      0   0   0
   225   231      0   0   0
   225   279      1   0   0
   225   224      0   0   0
   225   226      0   0   1
   226   172      0   0   0
   226   220      0   0   0
   226   232      0   0   0
   226   280      1   0   0
   226   227      0   0   0
   226   225      0   0  -1
   227   173      0   0   0
   227   221      0   0   0
   227   233      0   0   0
   227   281      1   0   0
   227   226      0   0   0
   227   228      0   0   0
   228   174      0   0   0
   228   222      0   0   0
   228   234      0   0   0
   228   282      1   0   0
   228   223      0   0   0
   228   227      0   0   0
   229   175      0   0   0
   229   223      0   0   0
   229   235      0   0   0
   229   283      1   0   0
   229   230      0   0   0
   229   234      0   0   0
   230   176      0   0   0
   230   224      0   0   0
   230   236      0   0   0
   230   284      1   0   0
   230   229      0   0   0
   230   231      0   0   0
   231   177      0   0   0
   231   225      0   0   0
   231   237      0   0   0
   231   285      1   0   0
   231   230      0   0   0
   231   232      0   0   1
   232   178      0   0   0
   232   226      0   0   0
   232   238      0   0   0
   232   286      1   0   0
   232   233      0   0   0
   232   231      0   0  -1
   233   179      0   0   0
   233   227      0   0   0
   233   239      0   0   0
   233   287      1   0   0
   233   232      0   0   0
   233   234      0   0   0
   234   180      0   0   0
   234   228      0   0   0
   234   240      0   0   0
   234   288      1   0   0
   234   229      0   0   0
   234   233      0   0   0
   235   181      0   0   0
   235   229      0   0   0
   235   241      0   0   0
   235   289      1   0   0
   235   236      0   0   0
   235   240      0   0   0
   236   182      0   0   0
   236   230      0   0   0
   236   242      0   0   0
   236   290      1   0   0
   236   235      0   0   0
   236   237      0   0   0
   237   183      0   0   0
   237   231      0   0   0
   237   243      0   0   0
   237   291      1   0   0
   237   236      0   0   0
   237   238      0   0   1
   238   184      0   0   0
   238   232      0   0   0
   238   244      0   0   0
   238   292      1   0   0
   238   239      0   0   0
   238   237      0   0  -1
   239   185      0   0   0
   239   233      0   0   0
   239   245      0   0   0
   239   293      1   0   0
   239   238      0   0   0
   239   240      0   0   0
   240   186      0   0   0
   240   234      0   0   0
   240   246      0   0   0
   240   294      1   0   0
   240   235      0   0   0
   240   239      0   0   0
   241   187      0   0   0
   241   235      0   0   0
   241   295      1   0   0
   241   247      0   1   0
   241   242      0   0   0
   241   246      0   0   0
   242   188      0   0   0
   242   236      0   0   0
   242   296      1   0   0
   242   248      0   1   0
   242   241      0   0   0
   242   243      0   0   0
   243   189      0   0   0
   243   237      0   0   0
   243   297      1   0   0
   243   249      0   1   0
   243   242      0   0   0
   243   244      0   0   1
   244   190      0   0   0
   244   238      0   0   0
   244   298      1   0   0
   244   250      0   1   0
   244   245      0   0   0
   244   243      0   0  -1
   245   191      0   0   0
   245   239      0   0   0
   245   299      1   0   0
   245   251      0   1   0
   245   244      0   0   0
   245   246      0   0   0
   246   192      0   0   0
   246   240      0   0   0
   246   300      1   0   0
   246   252      0   1   0
   246   241      0   0   0
   246   245      0   0   0
   247   193      0   0   0
   247   253      0   0   0
   247   301      1   0   0
   247   241      0  -1   0
   247   248      0   0   0
   247   252      0   0   0
   248   194      0   0   0
   248   254      0   0   0
   248   302      1   0   0
   248   242      0  -1   0
   248   247      0   0   0
   248   249      0   0   0
   249   195      0   0   0
   249   255      0   0   0
   249   303      1   0   0
   249   243      0  -1   0
   249   248      0   0   0
   249   250      0   0   1
   250   196      0   0   0
   250   256      0   0   0
   250   304      1   0   0
   250   244      0  -1   0
   250   251      0   0   0
   250   249      0   0  -1
   251   197      0   0   0
   251   257      0   0   0
   251   305      1   0   0
   251   245      0  -1   0
   251   250      0   0   0
   251   252      0   0   0
   252   198      0   0   0
   252   258      0   0   0
   252   306      1   0   0
   252   246      0  -1   0
   252   247      0   0   0
   252   251      0   0   0
   253   199      0   0   0
   253   247      0   0   0
   253   259      0   0   0
   253   307      1   0   0
   253   254      0   0   0
   253   258      0   0   0
   254   200      0   0   0
   254   248      0   0   0
   254   260      0   0   0
   254   308      1   0   0
   254   253      0   0   0
   254   255      0   0   0
   255   201      0   0   0
   255   249      0   0   0
   255   261      0   0   0
   255   309      1   0   0
   255   254      0   0   0
   255   256      0   0   1
   256   202      0   0   0
   256   250      0   0   0
   256   262      0   0   0
   256   310      1   0   0
   256   257      0   0   0
   256   255      0   0  -1
   257   203      0   0   0
   257   251      0   0   0
   257   263      0   0   0
   257   311      1   0   0
   257   256      0   0   0
   257   258      0   0   0
   258   204      0   0   0
   258   252      0   0   0
   258   264      0   0   0
   258   312      1   0   0
   258   253      0   0   0
   258   257      0   0   0
   259   205      0   0   0
   259   253      0   0   0
   259   265      0   0   0
   259   313      1   0   0
   259   260      0   0   0
   259   264      0   0   0
   260   206      0   0   0
   260   254      0   0   0
   260   266      0   0   0
   260   314      1   0   0
   260   259      0   0   0
   260   261      0   0   0
   261   207      0   0   0
   261   255      0   0   0
   261   267      0   0   0
   261   315      1   0   0
   261   260      0   0   0
   261   262      0   0   1
   262   208      0   0   0
   262   256      0   0   0
   262   268      0   0   0
   262   316      1   0   0
   262   263      0   0   0
   262   261      0   0  -1
   263   209      0   0   0
   263   257      0   0   0
   263   269      0   0   0
   263   317      1   0   0
   263   262      0   0   0
   263   264      0   0   0
   264   210      0   0   0
   264   258      0   0   0
   264   270      0   0   0
   264   318      1   0   0
   264   259      0   0   0
   264   263      0   0   0
   265   211      0   0   0
   265   217      0   0   0
   265   259      0   0   0
   265   319      1   0   0
   265   266      0   0   0
   265   270      0   0   0
   266   212      0   0   0
   266   218      0   0   0
   266   260      0   0   0
   266   320      1   0   0
   266   265      0   0   0
   266   267      0   0   0
   267   213      0   0   0
   267   219      0   0   0
   267   261      0   0   0
   267   321      1   0   0
   267   266      0   0   0
   267   268      0   0   1
   268   214      0   0   0
   268   220      0   0   0
   268   262      0   0   0
   268   322      1   0   0
   268   269      0   0   0
   268   267      0   0  -1
   269   215      0   0   0
   269   221      0   0   0
   269   263      0   0   0
   269   323      1   0   0
   269   268      0   0   0
   269   270      0   0   0
   270   216      0   0   0
   270   222      0   0   0
   270   264      0   0   0
   270   324      1   0   0
   270   265      0   0   0
   270   269      0   0   0
   271   277      0   0   0
   271   319      0   0   0
   271   325      0   0   0
   271   217     -1   0   0
   271   272      0   0   0
   271   276      0   0   0
   272   278      0   0   0
   272   320      0   0   0
   272   326      0   0   0
   272   218     -1   0   0
   272   271      0   0   0
   272   273      0   0   0
   273   279      0   0   0
   273   321      0   0   0
   273   327      0   0   0
   273   219     -1   0   0
   273   272      0   0   0
   273   274      0   0   1
   274   280      0   0   0
   274   322      0   0   0
   274   328      0   0   0
   274   220     -1   0   0
   274   275      0   0   0
   274   273      0   0  -1
   275   281      0   0   0
   275   323      0   0   0
   275   329      0   0   0
   275   221     -1   0   0
   275   274      0   0   0
   275   276      0   0   0
   276   282      0   0   0
   276   324      0   0   0
   276   330      0   0   0
   276   222     -1   0   0
   276   271      0   0   0
   276   275      0   0   0
   277   271      0   0   0
   277   283      0   0   0
   277   331      0   0   0
   277   223     -1   0   0
   277   278      0   0   0
   277   282      0   0   0
   278   272      0   0   0
   278   284      0   0   0
   278   332      0   0   0
   278   224     -1   0   0
   278   277      0   0   0
   278   279      0   0   0
   279   273      0   0   0
   279   285      0   0   0
   279   333      0   0   0
   279   225     -1   0   0
   279   278      0   0   0
   279   280      0   0   1
   280   274      0   0   0
   280   286      0   0   0
   280   334      0   0   0
   280   226     -1   0   0
   280   281      0   0   0
   280   279      0   0  -1
   281   275      0   0   0
   281   287      0   0   0
   281   335      0   0   0
   281   227     -1   0   0
   281   280      0   0   0
   281   282      0   0   0
   282   276      0   0   0
   282   288      0   0   0
   282   336      0   0   0
   282   228     -1   0   0
   282   277      0   0   0
   282   281      0   0   0
   283   277      0   0   0
   283   289      0   0   0
   283   337      0   0   0
   283   229     -1   0   0
   283   284      0   0   0
   283   288      0   0   0
   284   278      0   0   0
   284   290      0   0   0
   284   338      0   0   0
   284   230     -1   0   0
   284   283      0   0   0
   284   285      0   0   0
   285   279      0   0   0
   285   291      0   0   0
   285   339      0   0   0
   285   231     -1   0   0
   285   284      0   0   0
   285   286      0   0   1
   286   280      0   0   0
   286   292      0   0   0
   286   340      0   0   0
   286   232     -1   0   0
   286   287      0   0   0
   286   285      0   0  -1
   287   281      0   0   0
   287   293      0   0   0
   287   341      0   0   0
   287   233     -1   0   0
   287   286      0   0   0
   287   288      0   0   0
   288   282      0   0   0
   288   294      0   0   0
   288   342      0   0   0
   288   234     -1   0   0
   288   283      0   0   0
   288   287      0   0   0
   289   283      0   0   0
   289   295      0   0   0
   289   343      0   0   0
   289   235     -1   0   0
   289   290      0   0   0
   289   294      0   0   0
   290   284      0   0   0
   290   296      0   0   0
   290   344      0   0   0
   290   236     -1   0   0
   290   289      0   0   0
   290   291      0   0   0
   291   285      0   0   0
   291   297      0   0   0
   291   345      0   0   0
   291   237     -1   0   0
   291   290      0   0   0
   291   292      0   0   1
   292   286      0   0   0
   292   298      0   0   0
   292   346      0   0   0
   292   238     -1   0   0
   292   293      0   0   0
   292   291      0   0  -1
   293   287      0   0   0
   293   299      0   0   0
   293   347      0   0   0
   293   239     -1   0   0
   293   292      0   0   0
   293   294      0   0   0
   294   288      0   0   0
   294   300      0   0   0
   294   348      0   0   0
   294   240     -1   0   0
   294   289      0   0   0
   294   293      0   0   0
   295   289      0   0   0
   295   349      0   0   0
   295   301      0   1   0
   295   241     -1   0   0
   295   296      0   0   0
   295   300      0   0   0
   296   290      0   0   0
   296   350      0   0   0
   296   302      0   1   0
   296   242     -1   0   0
   296   295      0   0   0
   296   297      0   0   0
   297   291      0   0   0
   297   351      0   0   0
   297   303      0   1   0
   297   243     -1   0   0
   297   296      0   0   0
   297   298      0   0   1
   298   292      0   0   0
   298   352      0   0   0
   298   304      0   1   0
   298   244     -1   0   0
   298   299      0   0   0
   298   297      0   0  -1
   299   293      0   0   0
   299   353      0   0   0
   299   305      0   1   0
   299   245     -1   0   0
   299   298      0   0   0
   299   300      0   0   0
   300   294      0   0   0
   300   354      0   0   0
   300   306      0   1   0
   300   246     -1   0   0
   300   295      0   0   0
   300   299      0   0   0
   301   307      0   0   0
   301   355      0   0   0
   301   295      0  -1   0
   301   247     -1   0   0
   301   302      0   0   0
   301   306      0   0   0
   302   308      0   0   0
   302   356      0   0   0
   302   296      0  -1   0
   302   248     -1   0   0
   302   301      0   0   0
   302   303      0   0   0
   303   309      0   0   0
   303   357      0   0   0
   303   297      0  -1   0
   303   249     -1   0   0
   303   302      0   0   0
   303   304      0   0   1
   304   310      0   0   0
   304   358      0   0   0
   304   298      0  -1   0
   304   250     -1   0   0
   304   305      0   0   0
   304   303      0   0  -1
   305   311      0   0   0
   305   359      0   0   0
   305   299      0  -1   0
   305   251     -1   0   0
   305   304      0   0   0
   305   306      0   0   0
   306   312      0   0   0
   306   360      0   0   0
   306   300      0  -1   0
   306   252     -1   0   0
   306   301      0   0   0
   306   305      0   0   0
   307   301      0   0   0
   307   313      0   0   0
   307   361      0   0   0
   307   253     -1   0   0
   307   308      0   0   0
   307   312      0   0   0
   308   302      0   0   0
   308   314      0   0   0
   308   362      0   0   0
   308   254     -1   0   0
   308   307      0   0   0
   308   309      0   0   0
   309   303      0   0   0
   309   315      0   0   0
   309   363      0   0   0
   309   255     -1   0   0
   309   308      0   0   0
   309   310      0   0   1
   310   304      0   0   0
   310   316      0   0   0
   310   364      0   0   0
   310   256     -1   0   0
   310   311      0   0   0
   310   309      0   0  -1
   311   305      0   0   0
   311   317      0   0   0
   311   365      0   0   0
   311   257     -1   0   0
   311   310      0   0   0
   311   312      0   0   0
   312   306      0   0   0
   312   318      0   0   0
   312   366      0   0   0
   312   258     -1   0   0
   312   307      0   0   0
   312   311      0   0   0
   313   307      0   0   0
   313   319      0   0   0
   313   367      0   0   0
   313   259     -1   0   0
   313   314      0   0   0
   313   318      0   0   0
   314   308      0   0   0
   314   320      0   0   0
   314   368      0   0   0
   314   260     -1   0   0
   314   313      0   0   0
   314   315      0   0   0
[...]
   371   377      0   0   0
   371   425      0   0   0
   371   370      0   0   0
   371   372      0   0   0
   372   318      0   0   0
   372   366      0   0   0
   372   378      0   0   0
   372   426      0   0   0
   372   367      0   0   0
   372   371      0   0   0
   373   319      0   0   0
   373   325      0   0   0
   373   367      0   0   0
   373   427      0   0   0
   373   374      0   0   0
   373   378      0   0   0
   374   320      0   0   0
   374   326      0   0   0
   374   368      0   0   0
   374   428      0   0   0
   374   373      0   0   0
   374   375      0   0   0
   375   321      0   0   0
   375   327      0   0   0
   375   369      0   0   0
   375   429      0   0   0
   375   374      0   0   0
   375   376      0   0   1
   376   322      0   0   0
   376   328      0   0   0
   376   370      0   0   0
   376   430      0   0   0
   376   377      0   0   0
   376   375      0   0  -1
   377   323      0   0   0
   377   329      0   0   0
   377   371      0   0   0
   377   431      0   0   0
   377   376      0   0   0
   377   378      0   0   0
   378   324      0   0   0
   378   330      0   0   0
   378   372      0   0   0
   378   432      0   0   0
   378   373      0   0   0
   378   377      0   0   0
   379   325      0   0   0
   379   385      0   0   0
   379   427      0   0   0
   379   433      0   0   0
   379   380      0   0   0
   379   384      0   0   0
   380   326      0   0   0
   380   386      0   0   0
   380   428      0   0   0
   380   434      0   0   0
   380   379      0   0   0
   380   381      0   0   0
   381   327      0   0   0
   381   387      0   0   0
   381   429      0   0   0
   381   435      0   0   0
   381   380      0   0   0
   381   382      0   0   1
   382   328      0   0   0
   382   388      0   0   0
   382   430      0   0   0
   382   436      0   0   0
   382   383      0   0   0
   382   381      0   0  -1
   383   329      0   0   0
   383   389      0   0   0
   383   431      0   0   0
   383   437      0   0   0
   383   382      0   0   0
   383   384      0   0   0
   384   330      0   0   0
   384   390      0   0   0
   384   432      0   0   0
   384   438      0   0   0
   384   379      0   0   0
   384   383      0   0   0
   385   331      0   0   0
   385   379      0   0   0
   385   391      0   0   0
   385   439      0   0   0
   385   386      0   0   0
   385   390      0   0   0
   386   332      0   0   0
   386   380      0   0   0
   386   392      0   0   0
   386   440      0   0   0
   386   385      0   0   0
   386   387      0   0   0
   387   333      0   0   0
   387   381      0   0   0
   387   393      0   0   0
   387   441      0   0   0
   387   386      0   0   0
   387   388      0   0   1
   388   334      0   0   0
   388   382      0   0   0
   388   394      0   0   0
   388   442      0   0   0
   388   389      0   0   0
   388   387      0   0  -1
   389   335      0   0   0
   389   383      0   0   0
   389   395      0   0   0
   389   443      0   0   0
   389   388      0   0   0
   389   390      0   0   0
   390   336      0   0   0
   390   384      0   0   0
   390   396      0   0   0
   390   444      0   0   0
   390   385      0   0   0
   390   389      0   0   0
   391   337      0   0   0
   391   385      0   0   0
   391   397      0   0   0
   391   445      0   0   0
   391   392      0   0   0
   391   396      0   0   0
   392   338      0   0   0
   392   386      0   0   0
   392   398      0   0   0
   392   446      0   0   0
   392   391      0   0   0
   392   393      0   0   0
   393   339      0   0   0
   393   387      0   0   0
   393   399      0   0   0
   393   447      0   0   0
   393   392      0   0   0
   393   394      0   0   1
   394   340      0   0   0
   394   388      0   0   0
   394   400      0   0   0
   394   448      0   0   0
   394   395      0   0   0
   394   393      0   0  -1
   395   341      0   0   0
   395   389      0   0   0
   395   401      0   0   0
   395   449      0   0   0
   395   394      0   0   0
   395   396      0   0   0
   396   342      0   0   0
   396   390      0   0   0
   396   402      0   0   0
   396   450      0   0   0
   396   391      0   0   0
   396   395      0   0   0
   397   343      0   0   0
   397   391      0   0   0
   397   403      0   0   0
   397   451      0   0   0
   397   398      0   0   0
   397   402      0   0   0
   398   344      0   0   0
   398   392      0   0   0
   398   404      0   0   0
   398   452      0   0   0
   398   397      0   0   0
   398   399      0   0   0
   399   345      0   0   0
   399   393      0   0   0
   399   405      0   0   0
   399   453      0   0   0
   399   398      0   0   0
   399   400      0   0   1
   400   346      0   0   0
   400   394      0   0   0
   400   406      0   0   0
   400   454      0   0   0
   400   401      0   0   0
   400   399      0   0  -1
   401   347      0   0   0
   401   395      0   0   0
   401   407      0   0   0
   401   455      0   0   0
   401   400      0   0   0
   401   402      0   0   0
   402   348      0   0   0
   402   396      0   0   0
   402   408      0   0   0
   402   456      0   0   0
   402   397      0   0   0
   402   401      0   0   0
   403   349      0   0   0
   403   397      0   0   0
   403   457      0   0   0
   403   409      0   1   0
   403   404      0   0   0
   403   408      0   0   0
   404   350      0   0   0
   404   398      0   0   0
   404   458      0   0   0
   404   410      0   1   0
   404   403      0   0   0
   404   405      0   0   0
   405   351      0   0   0
   405   399      0   0   0
   405   459      0   0   0
   405   411      0   1   0
   405   404      0   0   0
   405   406      0   0   1
   406   352      0   0   0
   406   400      0   0   0
   406   460      0   0   0
   406   412      0   1   0
   406   407      0   0   0
   406   405      0   0  -1
   407   353      0   0   0
   407   401      0   0   0
   407   461      0   0   0
   407   413      0   1   0
   407   406      0   0   0
   407   408      0   0   0
   408   354      0   0   0
   408   402      0   0   0
   408   462      0   0   0
   408   414      0   1   0
   408   403      0   0   0
   408   407      0   0   0
   409   355      0   0   0
   409   415      0   0   0
   409   463      0   0   0
   409   403      0  -1   0
   409   410      0   0   0
   409   414      0   0   0
   410   356      0   0   0
   410   416      0   0   0
   410   464      0   0   0
   410   404      0  -1   0
   410   409      0   0   0
   410   411      0   0   0
   411   357      0   0   0
   411   417      0   0   0
   411   465      0   0   0
   411   405      0  -1   0
   411   410      0   0   0
   411   412      0   0   1
   412   358      0   0   0
   412   418      0   0   0
   412   466      0   0   0
   412   406      0  -1   0
   412   413      0   0   0
   412   411      0   0  -1
   413   359      0   0   0
   413   419      0   0   0
   413   467      0   0   0
   413   407      0  -1   0
   413   412      0   0   0
   413   414      0   0   0
   414   360      0   0   0
   414   420      0   0   0
   414   468      0   0   0
   414   408      0  -1   0
   414   409      0   0   0
   414   413      0   0   0
   415   361      0   0   0
   415   409      0   0   0
   415   421      0   0   0
   415   469      0   0   0
   415   416      0   0   0
   415   420      0   0   0
   416   362      0   0   0
   416   410      0   0   0
   416   422      0   0   0
   416   470      0   0   0
   416   415      0   0   0
   416   417      0   0   0
   417   363      0   0   0
   417   411      0   0   0
   417   423      0   0   0
   417   471      0   0   0
   417   416      0   0   0
   417   418      0   0   1
   418   364      0   0   0
   418   412      0   0   0
   418   424      0   0   0
   418   472      0   0   0
   418   419      0   0   0
   418   417      0   0  -1
   419   365      0   0   0
   419   413      0   0   0
   419   425      0   0   0
   419   473      0   0   0
   419   418      0   0   0
   419   420      0   0   0
   420   366      0   0   0
   420   414      0   0   0
   420   426      0   0   0
   420   474      0   0   0
   420   415      0   0   0
   420   419      0   0   0
   421   367      0   0   0
   421   415      0   0   0
   421   427      0   0   0
   421   475      0   0   0
   421   422      0   0   0
   421   426      0   0   0
   422   368      0   0   0
   422   416      0   0   0
   422   428      0   0   0
   422   476      0   0   0
   422   421      0   0   0
   422   423      0   0   0
   423   369      0   0   0
   423   417      0   0   0
   423   429      0   0   0
   423   477      0   0   0
   423   422      0   0   0
   423   424      0   0   1
   424   370      0   0   0
   424   418      0   0   0
   424   430      0   0   0
   424   478      0   0   0
   424   425      0   0   0
   424   423      0   0  -1
   425   371      0   0   0
   425   419      0   0   0
   425   431      0   0   0
   425   479      0   0   0
   425   424      0   0   0
   425   426      0   0   0
   426   372      0   0   0
   426   420      0   0   0
   426   432      0   0   0
   426   480      0   0   0
   426   421      0   0   0
   426   425      0   0   0
   427   373      0   0   0
   427   379      0   0   0
   427   421      0   0   0
   427   481      0   0   0
   427   428      0   0   0
   427   432      0   0   0
   428   374      0   0   0
   428   380      0   0   0
   428   422      0   0   0
   428   482      0   0   0
   428   427      0   0   0
   428   429      0   0   0
   429   375      0   0   0
   429   381      0   0   0
   429   423      0   0   0
   429   483      0   0   0
   429   428      0   0   0
   429   430      0   0   1
   430   376      0   0   0
   430   382      0   0   0
   430   424      0   0   0
   430   484      0   0   0
   430   431      0   0   0
   430   429      0   0  -1
   431   377      0   0   0
   431   383      0   0   0
   431   425      0   0   0
   431   485      0   0   0
   431   430      0   0   0
   431   432      0   0   0
   432   378      0   0   0
   432   384      0   0   0
   432   426      0   0   0
   432   486      0   0   0
   432   427      0   0   0
   432   431      0   0   0
   433     1      0   0   0
   433   379      0   0   0
   433   439      0   0   0
   433   481      0   0   0
   433   434      0   0   0
   433   438      0   0   0
   434     2      0   0   0
   434   380      0   0   0
   434   440      0   0   0
   434   482      0   0   0
   434   433      0   0   0
   434   435      0   0   0
   435     3      0   0   0
   435   381      0   0   0
   435   441      0   0   0
   435   483      0   0   0
   435   434      0   0   0
   435   436      0   0   1
   436     4      0   0   0
   436   382      0   0   0
   436   442      0   0   0
   436   484      0   0   0
   436   437      0   0   0
   436   435      0   0  -1
   437     5      0   0   0
   437   383      0   0   0
   437   443      0   0   0
   437   485      0   0   0
   437   436      0   0   0
   437   438      0   0   0
   438     6      0   0   0
   438   384      0   0   0
   438   444      0   0   0
   438   486      0   0   0
   438   433      0   0   0
   438   437      0   0   0
   439     7      0   0   0
   439   385      0   0   0
   439   433      0   0   0
   439   445      0   0   0
   439   440      0   0   0
   439   444      0   0   0
   440     8      0   0   0
   440   386      0   0   0
   440   434      0   0   0
   440   446      0   0   0
   440   439      0   0   0
   440   441      0   0   0
   441     9      0   0   0
   441   387      0   0   0
   441   435      0   0   0
   441   447      0   0   0
   441   440      0   0   0
   441   442      0   0   1
   442    10      0   0   0
   442   388      0   0   0
   442   436      0   0   0
   442   448      0   0   0
   442   443      0   0   0
   442   441      0   0  -1
   443    11      0   0   0
   443   389      0   0   0
   443   437      0   0   0
   443   449      0   0   0
   443   442      0   0   0
   443   444      0   0   0
   444    12      0   0   0
   444   390      0   0   0
   444   438      0   0   0
   444   450      0   0   0
   444   439      0   0   0
   444   443      0   0   0
   445    13      0   0   0
   445   391      0   0   0
   445   439      0   0   0
   445   451      0   0   0
   445   446      0   0   0
   445   450      0   0   0
   446    14      0   0   0
   446   392      0   0   0
   446   440      0   0   0
   446   452      0   0   0
   446   445      0   0   0
   446   447      0   0   0
   447    15      0   0   0
   447   393      0   0   0
   447   441      0   0   0
   447   453      0   0   0
   447   446      0   0   0
   447   448      0   0   1
   448    16      0   0   0
   448   394      0   0   0
   448   442      0   0   0
   448   454      0   0   0
   448   449      0   0   0
   448   447      0   0  -1
   449    17      0   0   0
   449   395      0   0   0
   449   443      0   0   0
   449   455      0   0   0
   449   448      0   0   0
   449   450      0   0   0
   450    18      0   0   0
   450   396      0   0   0
   450   444      0   0   0
   450   456      0   0   0
   450   445      0   0   0
   450   449      0   0   0
   451    19      0   0   0
   451   397      0   0   0
   451   445      0   0   0
   451   457      0   0   0
   451   452      0   0   0
   451   456      0   0   0
   452    20      0   0   0
   452   398      0   0   0
   452   446      0   0   0
   452   458      0   0   0
   452   451      0   0   0
   452   453      0   0   0
   453    21      0   0   0
   453   399      0   0   0
   453   447      0   0   0
   453   459      0   0   0
   453   452      0   0   0
   453   454      0   0   1
   454    22      0   0   0
   454   400      0   0   0
   454   448      0   0   0
   454   460      0   0   0
   454   455      0   0   0
   454   453      0   0  -1
   455    23      0   0   0
   455   401      0   0   0
   455   449      0   0   0
   455   461      0   0   0
   455   454      0   0   0
   455   456      0   0   0
   456    24      0   0   0
   456   402      0   0   0
   456   450      0   0   0
   456   462      0   0   0
   456   451      0   0   0
   456   455      0   0   0
   457    25      0   0   0
   457   403      0   0   0
   457   451      0   0   0
   457   463      0   1   0
   457   458      0   0   0
   457   462      0   0   0
   458    26      0   0   0
   458   404      0   0   0
   458   452      0   0   0
   458   464      0   1   0
   458   457      0   0   0
   458   459      0   0   0
   459    27      0   0   0
   459   405      0   0   0
   459   453      0   0   0
   459   465      0   1   0
   459   458      0   0   0
   459   460      0   0   1
   460    28      0   0   0
   460   406      0   0   0
   460   454      0   0   0
   460   466      0   1   0
   460   461      0   0   0
   460   459      0   0  -1
   461    29      0   0   0
   461   407      0   0   0
   461   455      0   0   0
   461   467      0   1   0
   461   460      0   0   0
   461   462      0   0   0
   462    30      0   0   0
   462   408      0   0   0
   462   456      0   0   0
   462   468      0   1   0
   462   457      0   0   0
   462   461      0   0   0
   463    31      0   0   0
   463   409      0   0   0
   463   469      0   0   0
   463   457      0  -1   0
   463   464      0   0   0
   463   468      0   0   0
   464    32      0   0   0
   464   410      0   0   0
   464   470      0   0   0
   464   458      0  -1   0
   464   463      0   0   0
   464   465      0   0   0
   465    33      0   0   0
   465   411      0   0   0
   465   471      0   0   0
   465   459      0  -1   0
   465   464      0   0   0
   465   466      0   0   1
   466    34      0   0   0
   466   412      0   0   0
   466   472      0   0   0
   466   460      0  -1   0
   466   467      0   0   0
   466   465      0   0  -1
   467    35      0   0   0
   467   413      0   0   0
   467   473      0   0   0
   467   461      0  -1   0
   467   466      0   0   0
   467   468      0   0   0
   468    36      0   0   0
   468   414      0   0   0
   468   474      0   0   0
   468   462      0  -1   0
   468   463      0   0   0
   468   467      0   0   0
   469    37      0   0   0
   469   415      0   0   0
   469   463      0   0   0
   469   475      0   0   0
   469   470      0   0   0
   469   474      0   0   0
   470    38      0   0   0
   470   416      0   0   0
   470   464      0   0   0
   470   476      0   0   0
   470   469      0   0   0
   470   471      0   0   0
   471    39      0   0   0
   471   417      0   0   0
   471   465      0   0   0
   471   477      0   0   0
   471   470      0   0   0
   471   472      0   0   1
   472    40      0   0   0
   472   418      0   0   0
   472   466      0   0   0
   472   478      0   0   0
   472   473      0   0   0
   472   471      0   0  -1
   473    41      0   0   0
   473   419      0   0   0
   473   467      0   0   0
   473   479      0   0   0
   473   472      0   0   0
   473   474      0   0   0
   474    42      0   0   0
   474   420      0   0   0
   474   468      0   0   0
   474   480      0   0   0
   474   469      0   0   0
   474   473      0   0   0
   475    43      0   0   0
   475   421      0   0   0
   475   469      0   0   0
   475   481      0   0   0
   475   476      0   0   0
   475   480      0   0   0
   476    44      0   0   0
   476   422      0   0   0
   476   470      0   0   0
   476   482      0   0   0
   476   475      0   0   0
   476   477      0   0   0
   477    45      0   0   0
   477   423      0   0   0
   477   471      0   0   0
   477   483      0   0   0
   477   476      0   0   0
   477   478      0   0   1
   478    46      0   0   0
   478   424      0   0   0
   478   472      0   0   0
   478   484      0   0   0
   478   479      0   0   0
   478   477      0   0  -1
   479    47      0   0   0
   479   425      0   0   0
   479   473      0   0   0
   479   485      0   0   0
   479   478      0   0   0
   479   480      0   0   0
   480    48      0   0   0
   480   426      0   0   0
   480   474      0   0   0
   480   486      0   0   0
   480   475      0   0   0
   480   479      0   0   0
   481    49      0   0   0
   481   427      0   0   0
   481   433      0   0   0
   481   475      0   0   0
   481   482      0   0   0
   481   486      0   0   0
   482    50      0   0   0
   482   428      0   0   0
   482   434      0   0   0
   482   476      0   0   0
   482   481      0   0   0
   482   483      0   0   0
   483    51      0   0   0
   483   429      0   0   0
   483   435      0   0   0
   483   477      0   0   0
   483   482      0   0   0
   483   484      0   0   1
   484    52      0   0   0
   484   430      0   0   0
   484   436      0   0   0
   484   478      0   0   0
   484   485      0   0   0
   484   483      0   0  -1
   485    53      0   0   0
   485   431      0   0   0
   485   437      0   0   0
   485   479      0   0   0
   485   484      0   0   0
   485   486      0   0   0
   486    54      0   0   0
   486   432      0   0   0
   486   438      0   0   0
   486   480      0   0   0
   486   481      0   0   0
   486   485      0   0   0
end nnkpts

begin exclude_bands
   8
   1
   2
   3
   4
   5
   6
   7
   8
end exclude_bands

begin bvectors
  0.000000000000000E+000  0.255899965921111       0.000000000000000E+000
  0.000000000000000E+000 -0.255899965921111       0.000000000000000E+000
  0.255899965921111       0.000000000000000E+000  0.000000000000000E+000
 -0.255899965921111       0.000000000000000E+000  0.000000000000000E+000
  0.000000000000000E+000  0.000000000000000E+000  0.277110871971418     
  0.000000000000000E+000  0.000000000000000E+000 -0.277110871971418     
end bvectors
