
     Program BANDS v.7.0 starts on 25Aug2023 at 18:58:42 

     This program is part of the open-source Quantum ESPRESSO suite
     for quantum simulation of materials; please cite
         "P. Giannozzi et al., J. Phys.:Condens. Matter 21 395502 (2009);
         "P. Giannozzi et al., J. Phys.:Condens. Matter 29 465901 (2017);
         "P. Giannozzi et al., J. Chem. Phys. 152 154105 (2020);
          URL http://www.quantum-espresso.org", 
     in publications or presentations arising from this work. More details at
     http://www.quantum-espresso.org/quote

     Parallel version (MPI), running on    22 processors

     MPI processes distributed on     1 nodes
     R & G space division:  proc/nbgrp/npool/nimage =      22
     7841 MiB available memory on the printing compute node when the environment starts
 

     Reading xml data from directory:

     ./work/pwscf.save/
     file Ni.rel-pbe-n-rrkjus_psl.0.1.UPF: wavefunction(s)  3D renormalized

     IMPORTANT: XC functional enforced from input :
     Exchange-correlation= PBE
                           (   1   4   3   4   0   0   0)
     Any further DFT definition will be discarded
     Please, verify this is what you really want

 
     Parallelization info
     --------------------
     sticks:   dense  smooth     PW     G-vecs:    dense   smooth      PW
     Min          63      20      6                 2543      474      84
     Max          64      22      7                 2548      477      89
     Sum        1389     457    145                55993    10451    1891
 
     Using Slab Decomposition
 

     Check: negative core charge=   -0.000008
     Reading collected, re-writing distributed wavefunctions
     high-symmetry point:  0.0000 0.0000 0.0000   x coordinate   0.0000
     high-symmetry point:  0.0000 0.5000 0.0000   x coordinate   0.5000
     high-symmetry point:  0.5000 0.5000 0.0000   x coordinate   1.0000
     high-symmetry point:  0.0000 0.0000 0.0000   x coordinate   1.7071
     high-symmetry point:  0.0000 0.0000 0.3500   x coordinate   2.0571
     high-symmetry point:  0.0000 0.5000 0.3500   x coordinate   2.5571
     high-symmetry point:  0.5000 0.5000 0.3500   x coordinate   3.0571
     high-symmetry point:  0.0000 0.0000 0.3500   x coordinate   3.7642

     Plottable bands (eV) written to file band.gnu
     Bands written to file band

 **************************************************************************

                    xk=(   0.00000,   0.00000,   0.00000  )

     the magnetic double point group is D_2h (mmm)  [C_2h (2/m) ]
     using the double point group C_2h (2/m) 
     there are  8 classes and  4 irreducible representations
     the character table:

       E     -E    C2    -C2   i     -i    s_h   -s_h 
                                                      
G_3+   1.00 -1.00  0.00  0.00  1.00 -1.00  0.00  0.00
G_4+   1.00 -1.00  0.00  0.00  1.00 -1.00  0.00  0.00
G_3-   1.00 -1.00  0.00  0.00 -1.00  1.00  0.00  0.00
G_4-   1.00 -1.00  0.00  0.00 -1.00  1.00  0.00  0.00

     imaginary part

       E     -E    C2    -C2   i     -i    s_h   -s_h 
                                                      
G_3+   0.00  0.00  1.00 -1.00  0.00  0.00  1.00 -1.00
G_4+   0.00  0.00 -1.00  1.00  0.00  0.00 -1.00  1.00
G_3-   0.00  0.00  1.00 -1.00  0.00  0.00 -1.00  1.00
G_4-   0.00  0.00 -1.00  1.00  0.00  0.00  1.00 -1.00

     the symmetry operations in each class and the name of the first element:

     E             1
                                                                 
     -E           -1
                                                                 
     C2            2
                                                                 
     -C2          -2
                                                                 
     i             3
                                                                 
     -i           -3
                                                                 
     s_h           4
                                                                 
     -s_h         -4
                                                                 

     Band symmetry, D_2h (mmm)  [C_2h (2/m) ] magnetic double point group,
     using C_2h (2/m) 

     e(  1 -  1) =    -72.58817  eV     1   --> G_4+           
     e(  2 -  2) =    -69.37412  eV     1   --> G_3+           
     e(  3 -  3) =    -39.27849  eV     1   --> G_3-           
     e(  4 -  4) =    -38.64421  eV     1   --> G_4-           
     e(  5 -  5) =    -38.07260  eV     1   --> G_3-           
     e(  6 -  6) =    -35.74784  eV     1   --> G_4-           
     e(  7 -  7) =    -35.19418  eV     1   --> G_3-           
     e(  8 -  8) =    -34.90346  eV     1   --> G_4-           
     e(  9 -  9) =      7.00462  eV     1   --> G_4+           
     e( 10 - 10) =      7.08034  eV     1   --> G_3+           
     e( 11 - 11) =     10.83362  eV     1   --> G_4+           
     e( 12 - 12) =     11.53898  eV     1   --> G_4+           
     e( 13 - 13) =     11.92640  eV     1   --> G_3+           
     e( 14 - 14) =     12.63343  eV     1   --> G_3+           
     e( 15 - 15) =     13.36596  eV     1   --> G_4+           
     e( 16 - 16) =     13.40268  eV     1   --> G_3+           
     e( 17 - 17) =     13.44096  eV     1   --> G_4+           
     e( 18 - 18) =     14.37240  eV     1   --> G_4+           
     e( 19 - 19) =     14.50514  eV     1   --> G_3+           
     e( 20 - 20) =     14.63914  eV     1   --> G_3+           
     e( 21 - 21) =     14.64620  eV     1   --> G_4+           
     e( 22 - 22) =     14.98385  eV     1   --> G_3+           
     e( 23 - 23) =     15.26771  eV     1   --> G_3+           
     e( 24 - 24) =     15.49666  eV     1   --> G_4+           
     e( 25 - 25) =     15.52828  eV     1   --> G_3+           
     e( 26 - 26) =     15.56733  eV     1   --> G_4+           
     e( 27 - 27) =     16.28601  eV     1   --> G_3+           
     e( 28 - 28) =     17.65672  eV     1   --> G_4+           
     e( 29 - 29) =     17.66020  eV     1   --> G_3+           
     e( 30 - 30) =     18.09927  eV     1   --> G_4+           
     e( 31 - 31) =     18.12840  eV     1   --> G_3-           
     e( 32 - 32) =     18.21763  eV     1   --> G_4-           
     e( 33 - 33) =     25.01639  eV     1   --> G_4+           
     e( 34 - 34) =     26.01912  eV     1   --> G_3+           
     e( 35 - 36) =     30.57836  eV     2   --> G_3-           
     e( 35 - 36) =     30.57836  eV     2   --> G_4-           
     e( 37 - 38) =     30.83958  eV     2   --> G_3-           
     e( 37 - 38) =     30.83958  eV     2   --> G_4-           
     e( 39 - 39) =     35.43743  eV     1   --> G_4+           
     e( 40 - 40) =     35.86339  eV     1   --> G_3+           
     e( 41 - 41) =     38.58991  eV     1   --> G_4-           
     e( 42 - 42) =     38.85773  eV     1   --> G_3-           
     e( 43 - 43) =     39.08085  eV     1   --> G_4+           
     e( 44 - 44) =     39.54966  eV     1   --> G_3+           
     e( 45 - 45) =     42.72786  eV     1   --> G_3-           
     e( 46 - 46) =     42.87628  eV     1   --> G_4-           
     e( 47 - 47) =     42.94851  eV     1   --> G_3-           
     e( 48 - 48) =     43.03906  eV     1   --> G_4-           
     e( 49 - 49) =     43.16019  eV     1   --> G_3-           
     e( 50 - 50) =     43.16640  eV     1   --> G_4-           
     e( 51 - 51) =     45.42965  eV     1   --> G_4+           
     e( 52 - 52) =     45.43182  eV     1   --> G_3+           
     e( 53 - 53) =     45.57556  eV     1   --> G_4+           
     e( 54 - 54) =     45.85585  eV     1   --> G_3+           
     e( 55 - 55) =     45.86134  eV     1   --> G_4+           
     e( 56 - 56) =     46.00186  eV     1   --> G_3+           
     e( 57 - 57) =     48.07695  eV     1   --> G_3+           
     e( 58 - 58) =     48.46421  eV     1   --> G_4+           

 **************************************************************************

 **************************************************************************

                    xk=(   0.00000,   0.01000,   0.00000  )

     the magnetic double point group is C_2v (mm2)  [C_s (m)    ]
     using the double point group C_s (m)    
     there are  4 classes and  2 irreducible representations
     the character table:

       E     -E    s     -s   
                              
G_3    1.00 -1.00  0.00  0.00
G_4    1.00 -1.00  0.00  0.00

     imaginary part

       E     -E    s     -s   
                              
G_3    0.00  0.00  1.00 -1.00
G_4    0.00  0.00 -1.00  1.00

     the symmetry operations in each class and the name of the first element:

     E             1
                                                                 
     -E           -1
                                                                 
     s             2
                                                                 
     -s           -2
                                                                 

     Band symmetry, C_2v (mm2)  [C_s (m)    ] magnetic double point group,
     using C_s (m)    

     e(  1 -  1) =    -72.58815  eV     1   --> G_4            
     e(  2 -  2) =    -69.37410  eV     1   --> G_3            
     e(  3 -  3) =    -39.27852  eV     1   --> G_4            
     e(  4 -  4) =    -38.64429  eV     1   --> G_3            
     e(  5 -  5) =    -38.07280  eV     1   --> G_4            
     e(  6 -  6) =    -35.74789  eV     1   --> G_3            
     e(  7 -  7) =    -35.19425  eV     1   --> G_4            
     e(  8 -  8) =    -34.90366  eV     1   --> G_3            
     e(  9 -  9) =      7.00724  eV     1   --> G_4            
     e( 10 - 10) =      7.08297  eV     1   --> G_3            
     e( 11 - 11) =     10.83509  eV     1   --> G_4            
     e( 12 - 12) =     11.53996  eV     1   --> G_4            
     e( 13 - 13) =     11.92796  eV     1   --> G_3            
     e( 14 - 14) =     12.63431  eV     1   --> G_3            
     e( 15 - 15) =     13.36589  eV     1   --> G_4            
     e( 16 - 16) =     13.40326  eV     1   --> G_3            
     e( 17 - 17) =     13.44095  eV     1   --> G_4            
     e( 18 - 18) =     14.37251  eV     1   --> G_4            
     e( 19 - 19) =     14.50447  eV     1   --> G_3            
     e( 20 - 20) =     14.63795  eV     1   --> G_3            
     e( 21 - 21) =     14.64665  eV     1   --> G_4            
     e( 22 - 22) =     14.98471  eV     1   --> G_3            
     e( 23 - 23) =     15.26651  eV     1   --> G_3            
     e( 24 - 24) =     15.49146  eV     1   --> G_4            
     e( 25 - 25) =     15.52781  eV     1   --> G_3            
     e( 26 - 26) =     15.56449  eV     1   --> G_4            
     e( 27 - 27) =     16.28616  eV     1   --> G_3            
     e( 28 - 28) =     17.62830  eV     1   --> G_3            
     e( 29 - 29) =     17.65635  eV     1   --> G_4            
     e( 30 - 30) =     18.09772  eV     1   --> G_4            
     e( 31 - 31) =     18.13841  eV     1   --> G_4            
     e( 32 - 32) =     18.25235  eV     1   --> G_3            
     e( 33 - 33) =     25.01693  eV     1   --> G_4            
     e( 34 - 34) =     26.01939  eV     1   --> G_3            
     e( 35 - 35) =     30.55255  eV     1   --> G_4            
     e( 36 - 36) =     30.57788  eV     1   --> G_3            
     e( 37 - 37) =     30.81621  eV     1   --> G_3            
     e( 38 - 38) =     30.83951  eV     1   --> G_4            
     e( 39 - 39) =     35.45662  eV     1   --> G_4            
     e( 40 - 40) =     35.88092  eV     1   --> G_3            
     e( 41 - 41) =     38.58565  eV     1   --> G_3            
     e( 42 - 42) =     38.85190  eV     1   --> G_4            
     e( 43 - 43) =     39.09613  eV     1   --> G_4            
     e( 44 - 44) =     39.56445  eV     1   --> G_3            
     e( 45 - 45) =     42.69833  eV     1   --> G_4            
     e( 46 - 46) =     42.86704  eV     1   --> G_3            
     e( 47 - 47) =     42.90413  eV     1   --> G_4            
     e( 48 - 48) =     43.02339  eV     1   --> G_3            
     e( 49 - 49) =     43.12291  eV     1   --> G_3            
     e( 50 - 50) =     43.16080  eV     1   --> G_4            
     e( 51 - 51) =     45.43299  eV     1   --> G_3            
     e( 52 - 52) =     45.46798  eV     1   --> G_4            
     e( 53 - 53) =     45.60437  eV     1   --> G_4            
     e( 54 - 54) =     45.86254  eV     1   --> G_4            
     e( 55 - 55) =     45.88885  eV     1   --> G_3            
     e( 56 - 56) =     46.02614  eV     1   --> G_3            
     e( 57 - 57) =     48.09869  eV     1   --> G_3            
     e( 58 - 58) =     48.48241  eV     1   --> G_4            

 **************************************************************************

 **************************************************************************

                    xk=(   0.00000,   0.02000,   0.00000  )

     Band symmetry, C_2v (mm2)  [C_s (m)    ] magnetic double point group,
     using C_s (m)    

     e(  1 -  1) =    -72.58805  eV     1   --> G_4            
     e(  2 -  2) =    -69.37400  eV     1   --> G_3            
     e(  3 -  3) =    -39.27858  eV     1   --> G_4            
     e(  4 -  4) =    -38.64423  eV     1   --> G_3            
     e(  5 -  5) =    -38.07313  eV     1   --> G_4            
     e(  6 -  6) =    -35.74800  eV     1   --> G_3            
     e(  7 -  7) =    -35.19417  eV     1   --> G_4            
     e(  8 -  8) =    -34.90403  eV     1   --> G_3            
     e(  9 -  9) =      7.01510  eV     1   --> G_4            
     e( 10 - 10) =      7.09085  eV     1   --> G_3            
     e( 11 - 11) =     10.83944  eV     1   --> G_4            
     e( 12 - 12) =     11.54294  eV     1   --> G_4            
     e( 13 - 13) =     11.93258  eV     1   --> G_3            
     e( 14 - 14) =     12.63701  eV     1   --> G_3            
     e( 15 - 15) =     13.36555  eV     1   --> G_4            
     e( 16 - 16) =     13.40499  eV     1   --> G_3            
     e( 17 - 17) =     13.44104  eV     1   --> G_4            
     e( 18 - 18) =     14.37282  eV     1   --> G_4            
     e( 19 - 19) =     14.50243  eV     1   --> G_3            
     e( 20 - 20) =     14.63439  eV     1   --> G_3            
     e( 21 - 21) =     14.64800  eV     1   --> G_4            
     e( 22 - 22) =     14.98730  eV     1   --> G_3            
     e( 23 - 23) =     15.26295  eV     1   --> G_3            
     e( 24 - 24) =     15.47479  eV     1   --> G_4            
     e( 25 - 25) =     15.52641  eV     1   --> G_3            
     e( 26 - 26) =     15.55737  eV     1   --> G_4            
     e( 27 - 27) =     16.28663  eV     1   --> G_3            
     e( 28 - 28) =     17.54906  eV     1   --> G_3            
     e( 29 - 29) =     17.65528  eV     1   --> G_4            
     e( 30 - 30) =     18.09322  eV     1   --> G_4            
     e( 31 - 31) =     18.16776  eV     1   --> G_4            
     e( 32 - 32) =     18.33983  eV     1   --> G_3            
     e( 33 - 33) =     25.01853  eV     1   --> G_4            
     e( 34 - 34) =     26.02020  eV     1   --> G_3            
     e( 35 - 35) =     30.47328  eV     1   --> G_4            
     e( 36 - 36) =     30.56873  eV     1   --> G_3            
     e( 37 - 37) =     30.75583  eV     1   --> G_3            
     e( 38 - 38) =     30.84383  eV     1   --> G_4            
     e( 39 - 39) =     35.51196  eV     1   --> G_4            
     e( 40 - 40) =     35.93162  eV     1   --> G_3            
     e( 41 - 41) =     38.57268  eV     1   --> G_3            
     e( 42 - 42) =     38.83414  eV     1   --> G_4            
     e( 43 - 43) =     39.14229  eV     1   --> G_4            
     e( 44 - 44) =     39.60910  eV     1   --> G_3            
     e( 45 - 45) =     42.61197  eV     1   --> G_4            
     e( 46 - 46) =     42.77854  eV     1   --> G_4            
     e( 47 - 47) =     42.82085  eV     1   --> G_3            
     e( 48 - 48) =     42.98407  eV     1   --> G_3            
     e( 49 - 49) =     43.01479  eV     1   --> G_3            
     e( 50 - 50) =     43.16673  eV     1   --> G_4            
     e( 51 - 51) =     45.43640  eV     1   --> G_3            
     e( 52 - 52) =     45.57741  eV     1   --> G_4            
     e( 53 - 53) =     45.68178  eV     1   --> G_4            
     e( 54 - 54) =     45.86650  eV     1   --> G_4            
     e( 55 - 55) =     45.98377  eV     1   --> G_3            
     e( 56 - 56) =     46.09058  eV     1   --> G_3            
     e( 57 - 57) =     48.16547  eV     1   --> G_3            
     e( 58 - 58) =     48.53791  eV     1   --> G_4            

 **************************************************************************

 **************************************************************************

                    xk=(   0.00000,   0.03000,   0.00000  )

     Band symmetry, C_2v (mm2)  [C_s (m)    ] magnetic double point group,
     using C_s (m)    

     e(  1 -  1) =    -72.58792  eV     1   --> G_4            
     e(  2 -  2) =    -69.37385  eV     1   --> G_3            
     e(  3 -  3) =    -39.27890  eV     1   --> G_4            
     e(  4 -  4) =    -38.64417  eV     1   --> G_3            
     e(  5 -  5) =    -38.07381  eV     1   --> G_4            
     e(  6 -  6) =    -35.74838  eV     1   --> G_3            
     e(  7 -  7) =    -35.19409  eV     1   --> G_4            
     e(  8 -  8) =    -34.90479  eV     1   --> G_3            
     e(  9 -  9) =      7.02818  eV     1   --> G_4            
     e( 10 - 10) =      7.10397  eV     1   --> G_3            
     e( 11 - 11) =     10.84662  eV     1   --> G_4            
     e( 12 - 12) =     11.54790  eV     1   --> G_4            
     e( 13 - 13) =     11.94022  eV     1   --> G_3            
     e( 14 - 14) =     12.64149  eV     1   --> G_3            
     e( 15 - 15) =     13.36463  eV     1   --> G_4            
     e( 16 - 16) =     13.40788  eV     1   --> G_3            
     e( 17 - 17) =     13.44154  eV     1   --> G_4            
     e( 18 - 18) =     14.37337  eV     1   --> G_4            
     e( 19 - 19) =     14.49904  eV     1   --> G_3            
     e( 20 - 20) =     14.62848  eV     1   --> G_3            
     e( 21 - 21) =     14.65024  eV     1   --> G_4            
     e( 22 - 22) =     14.99158  eV     1   --> G_3            
     e( 23 - 23) =     15.25704  eV     1   --> G_3            
     e( 24 - 24) =     15.44496  eV     1   --> G_4            
     e( 25 - 25) =     15.52407  eV     1   --> G_3            
     e( 26 - 26) =     15.54862  eV     1   --> G_4            
     e( 27 - 27) =     16.28741  eV     1   --> G_3            
     e( 28 - 28) =     17.44671  eV     1   --> G_3            
     e( 29 - 29) =     17.65349  eV     1   --> G_4            
     e( 30 - 30) =     18.08582  eV     1   --> G_4            
     e( 31 - 31) =     18.21531  eV     1   --> G_4            
     e( 32 - 32) =     18.45570  eV     1   --> G_3            
     e( 33 - 33) =     25.02117  eV     1   --> G_4            
     e( 34 - 34) =     26.02152  eV     1   --> G_3            
     e( 35 - 35) =     30.34025  eV     1   --> G_4            
     e( 36 - 36) =     30.51100  eV     1   --> G_3            
     e( 37 - 37) =     30.70277  eV     1   --> G_3            
     e( 38 - 38) =     30.85795  eV     1   --> G_4            
     e( 39 - 39) =     35.59728  eV     1   --> G_4            
     e( 40 - 40) =     36.01020  eV     1   --> G_3            
     e( 41 - 41) =     38.55041  eV     1   --> G_3            
     e( 42 - 42) =     38.80361  eV     1   --> G_4            
     e( 43 - 43) =     39.22006  eV     1   --> G_4            
     e( 44 - 44) =     39.68431  eV     1   --> G_3            
     e( 45 - 45) =     42.46849  eV     1   --> G_4            
     e( 46 - 46) =     42.60037  eV     1   --> G_4            
     e( 47 - 47) =     42.69502  eV     1   --> G_3            
     e( 48 - 48) =     42.83835  eV     1   --> G_3            
     e( 49 - 49) =     42.99414  eV     1   --> G_3            
     e( 50 - 50) =     43.18127  eV     1   --> G_4            
     e( 51 - 51) =     45.44189  eV     1   --> G_3            
     e( 52 - 52) =     45.74172  eV     1   --> G_4            
     e( 53 - 53) =     45.78676  eV     1   --> G_4            
     e( 54 - 54) =     45.87670  eV     1   --> G_4            
     e( 55 - 55) =     46.12660  eV     1   --> G_3            
     e( 56 - 56) =     46.17906  eV     1   --> G_3            
     e( 57 - 57) =     48.28097  eV     1   --> G_3            
     e( 58 - 58) =     48.63311  eV     1   --> G_4            

 **************************************************************************

 **************************************************************************

                    xk=(   0.00000,   0.04000,   0.00000  )

     Band symmetry, C_2v (mm2)  [C_s (m)    ] magnetic double point group,
     using C_s (m)    

     e(  1 -  1) =    -72.58773  eV     1   --> G_4            
     e(  2 -  2) =    -69.37365  eV     1   --> G_3            
     e(  3 -  3) =    -39.27933  eV     1   --> G_4            
     e(  4 -  4) =    -38.64409  eV     1   --> G_3            
     e(  5 -  5) =    -38.07473  eV     1   --> G_4            
     e(  6 -  6) =    -35.74889  eV     1   --> G_3            
     e(  7 -  7) =    -35.19398  eV     1   --> G_4            
     e(  8 -  8) =    -34.90580  eV     1   --> G_3            
     e(  9 -  9) =      7.04647  eV     1   --> G_4            
     e( 10 - 10) =      7.12232  eV     1   --> G_3            
     e( 11 - 11) =     10.85664  eV     1   --> G_4            
     e( 12 - 12) =     11.55483  eV     1   --> G_4            
     e( 13 - 13) =     11.95089  eV     1   --> G_3            
     e( 14 - 14) =     12.64773  eV     1   --> G_3            
     e( 15 - 15) =     13.36262  eV     1   --> G_4            
     e( 16 - 16) =     13.41191  eV     1   --> G_3            
     e( 17 - 17) =     13.44293  eV     1   --> G_4            
     e( 18 - 18) =     14.37417  eV     1   --> G_4            
     e( 19 - 19) =     14.49429  eV     1   --> G_3            
     e( 20 - 20) =     14.62027  eV     1   --> G_3            
     e( 21 - 21) =     14.65338  eV     1   --> G_4            
     e( 22 - 22) =     14.99754  eV     1   --> G_3            
     e( 23 - 23) =     15.24881  eV     1   --> G_3            
     e( 24 - 24) =     15.40202  eV     1   --> G_4            
     e( 25 - 25) =     15.52080  eV     1   --> G_3            
     e( 26 - 26) =     15.53958  eV     1   --> G_4            
     e( 27 - 27) =     16.28855  eV     1   --> G_3            
     e( 28 - 28) =     17.33465  eV     1   --> G_3            
     e( 29 - 29) =     17.65101  eV     1   --> G_4            
     e( 30 - 30) =     18.07555  eV     1   --> G_4            
     e( 31 - 31) =     18.27982  eV     1   --> G_4            
     e( 32 - 32) =     18.58667  eV     1   --> G_3            
     e( 33 - 33) =     25.02484  eV     1   --> G_4            
     e( 34 - 34) =     26.02336  eV     1   --> G_3            
     e( 35 - 35) =     30.15981  eV     1   --> G_4            
     e( 36 - 36) =     30.36815  eV     1   --> G_3            
     e( 37 - 37) =     30.70005  eV     1   --> G_3            
     e( 38 - 38) =     30.88300  eV     1   --> G_4            
     e( 39 - 39) =     35.70415  eV     1   --> G_4            
     e( 40 - 40) =     36.10926  eV     1   --> G_3            
     e( 41 - 41) =     38.51791  eV     1   --> G_3            
     e( 42 - 42) =     38.75899  eV     1   --> G_4            
     e( 43 - 43) =     39.33051  eV     1   --> G_4            
     e( 44 - 44) =     39.79108  eV     1   --> G_3            
     e( 45 - 45) =     42.25316  eV     1   --> G_4            
     e( 46 - 46) =     42.41944  eV     1   --> G_4            
     e( 47 - 47) =     42.47607  eV     1   --> G_3            
     e( 48 - 48) =     42.68350  eV     1   --> G_3            
     e( 49 - 49) =     43.00810  eV     1   --> G_3            
     e( 50 - 50) =     43.20459  eV     1   --> G_4            
     e( 51 - 51) =     45.44941  eV     1   --> G_3            
     e( 52 - 52) =     45.86128  eV     1   --> G_4            
     e( 53 - 53) =     45.89601  eV     1   --> G_4            
     e( 54 - 54) =     45.97928  eV     1   --> G_4            
     e( 55 - 55) =     46.24066  eV     1   --> G_3            
     e( 56 - 56) =     46.33502  eV     1   --> G_3            
     e( 57 - 57) =     48.44845  eV     1   --> G_3            
     e( 58 - 58) =     48.77075  eV     1   --> G_4            

 **************************************************************************

 **************************************************************************

                    xk=(   0.00000,   0.05000,   0.00000  )

     Band symmetry, C_2v (mm2)  [C_s (m)    ] magnetic double point group,
     using C_s (m)    

     e(  1 -  1) =    -72.58751  eV     1   --> G_4            
     e(  2 -  2) =    -69.37339  eV     1   --> G_3            
     e(  3 -  3) =    -39.27992  eV     1   --> G_4            
     e(  4 -  4) =    -38.64395  eV     1   --> G_3            
     e(  5 -  5) =    -38.07597  eV     1   --> G_4            
     e(  6 -  6) =    -35.74958  eV     1   --> G_3            
     e(  7 -  7) =    -35.19381  eV     1   --> G_4            
     e(  8 -  8) =    -34.90715  eV     1   --> G_3            
     e(  9 -  9) =      7.06996  eV     1   --> G_4            
     e( 10 - 10) =      7.14588  eV     1   --> G_3            
     e( 11 - 11) =     10.86945  eV     1   --> G_4            
     e( 12 - 12) =     11.56370  eV     1   --> G_4            
     e( 13 - 13) =     11.96454  eV     1   --> G_3            
     e( 14 - 14) =     12.65571  eV     1   --> G_3            
     e( 15 - 15) =     13.35900  eV     1   --> G_4            
     e( 16 - 16) =     13.41709  eV     1   --> G_3            
     e( 17 - 17) =     13.44570  eV     1   --> G_4            
     e( 18 - 18) =     14.37527  eV     1   --> G_4            
     e( 19 - 19) =     14.48816  eV     1   --> G_3            
     e( 20 - 20) =     14.60980  eV     1   --> G_3            
     e( 21 - 21) =     14.65741  eV     1   --> G_4            
     e( 22 - 22) =     15.00511  eV     1   --> G_3            
     e( 23 - 23) =     15.23829  eV     1   --> G_3            
     e( 24 - 24) =     15.34764  eV     1   --> G_4            
     e( 25 - 25) =     15.51661  eV     1   --> G_3            
     e( 26 - 26) =     15.53023  eV     1   --> G_4            
     e( 27 - 27) =     16.29008  eV     1   --> G_3            
     e( 28 - 28) =     17.21895  eV     1   --> G_3            
     e( 29 - 29) =     17.64784  eV     1   --> G_4            
     e( 30 - 30) =     18.06247  eV     1   --> G_4            
     e( 31 - 31) =     18.35966  eV     1   --> G_4            
     e( 32 - 32) =     18.72667  eV     1   --> G_3            
     e( 33 - 33) =     25.02954  eV     1   --> G_4            
     e( 34 - 34) =     26.02570  eV     1   --> G_3            
     e( 35 - 35) =     29.94050  eV     1   --> G_4            
     e( 36 - 36) =     30.16948  eV     1   --> G_3            
     e( 37 - 37) =     30.72535  eV     1   --> G_3            
     e( 38 - 38) =     30.91828  eV     1   --> G_4            
     e( 39 - 39) =     35.82359  eV     1   --> G_4            
     e( 40 - 40) =     36.22078  eV     1   --> G_3            
     e( 41 - 41) =     38.47391  eV     1   --> G_3            
     e( 42 - 42) =     38.69855  eV     1   --> G_4            
     e( 43 - 43) =     39.47468  eV     1   --> G_4            
     e( 44 - 44) =     39.93042  eV     1   --> G_3            
     e( 45 - 45) =     41.97738  eV     1   --> G_4            
     e( 46 - 46) =     42.19959  eV     1   --> G_3            
     e( 47 - 47) =     42.25413  eV     1   --> G_4            
     e( 48 - 48) =     42.53191  eV     1   --> G_3            
     e( 49 - 49) =     43.03546  eV     1   --> G_3            
     e( 50 - 50) =     43.23616  eV     1   --> G_4            
     e( 51 - 51) =     45.45895  eV     1   --> G_3            
     e( 52 - 52) =     45.87789  eV     1   --> G_4            
     e( 53 - 53) =     45.99227  eV     1   --> G_4            
     e( 54 - 54) =     46.21993  eV     1   --> G_4            
     e( 55 - 55) =     46.30260  eV     1   --> G_3            
     e( 56 - 56) =     46.55592  eV     1   --> G_3            
     e( 57 - 57) =     48.66792  eV     1   --> G_3            
     e( 58 - 58) =     48.95249  eV     1   --> G_4            

 **************************************************************************

 **************************************************************************

                    xk=(   0.00000,   0.06000,   0.00000  )

     Band symmetry, C_2v (mm2)  [C_s (m)    ] magnetic double point group,
     using C_s (m)    

     e(  1 -  1) =    -72.58724  eV     1   --> G_4            
     e(  2 -  2) =    -69.37309  eV     1   --> G_3            
     e(  3 -  3) =    -39.28066  eV     1   --> G_4            
     e(  4 -  4) =    -38.64384  eV     1   --> G_3            
     e(  5 -  5) =    -38.07752  eV     1   --> G_4            
     e(  6 -  6) =    -35.75046  eV     1   --> G_3            
     e(  7 -  7) =    -35.19364  eV     1   --> G_4            
     e(  8 -  8) =    -34.90884  eV     1   --> G_3            
     e(  9 -  9) =      7.09862  eV     1   --> G_4            
     e( 10 - 10) =      7.17464  eV     1   --> G_3            
     e( 11 - 11) =     10.88500  eV     1   --> G_4            
     e( 12 - 12) =     11.57450  eV     1   --> G_4            
     e( 13 - 13) =     11.98112  eV     1   --> G_3            
     e( 14 - 14) =     12.66540  eV     1   --> G_3            
     e( 15 - 15) =     13.35333  eV     1   --> G_4            
     e( 16 - 16) =     13.42341  eV     1   --> G_3            
     e( 17 - 17) =     13.45022  eV     1   --> G_4            
     e( 18 - 18) =     14.37670  eV     1   --> G_4            
     e( 19 - 19) =     14.48062  eV     1   --> G_3            
     e( 20 - 20) =     14.59716  eV     1   --> G_3            
     e( 21 - 21) =     14.66233  eV     1   --> G_4            
     e( 22 - 22) =     15.01423  eV     1   --> G_3            
     e( 23 - 23) =     15.22555  eV     1   --> G_3            
     e( 24 - 24) =     15.28395  eV     1   --> G_4            
     e( 25 - 25) =     15.51151  eV     1   --> G_3            
     e( 26 - 26) =     15.52021  eV     1   --> G_4            
     e( 27 - 27) =     16.29205  eV     1   --> G_3            
     e( 28 - 28) =     17.10239  eV     1   --> G_3            
     e( 29 - 29) =     17.64399  eV     1   --> G_4            
     e( 30 - 30) =     18.04665  eV     1   --> G_4            
     e( 31 - 31) =     18.45317  eV     1   --> G_4            
     e( 32 - 32) =     18.87294  eV     1   --> G_3            
     e( 33 - 33) =     25.03519  eV     1   --> G_4            
     e( 34 - 34) =     26.02846  eV     1   --> G_3            
     e( 35 - 35) =     29.69051  eV     1   --> G_4            
     e( 36 - 36) =     29.93597  eV     1   --> G_3            
     e( 37 - 37) =     30.76438  eV     1   --> G_3            
     e( 38 - 38) =     30.96295  eV     1   --> G_4            
     e( 39 - 39) =     35.94751  eV     1   --> G_4            
     e( 40 - 40) =     36.33729  eV     1   --> G_3            
     e( 41 - 41) =     38.41689  eV     1   --> G_3            
     e( 42 - 42) =     38.62039  eV     1   --> G_4            
     e( 43 - 43) =     39.65321  eV     1   --> G_4            
     e( 44 - 44) =     40.10302  eV     1   --> G_3            
     e( 45 - 45) =     41.66885  eV     1   --> G_4            
     e( 46 - 46) =     41.89264  eV     1   --> G_3            
     e( 47 - 47) =     42.09921  eV     1   --> G_4            
     e( 48 - 48) =     42.38120  eV     1   --> G_3            
     e( 49 - 49) =     43.07226  eV     1   --> G_3            
     e( 50 - 50) =     43.27549  eV     1   --> G_4            
     e( 51 - 51) =     45.47055  eV     1   --> G_3            
     e( 52 - 52) =     45.88973  eV     1   --> G_4            
     e( 53 - 53) =     46.06494  eV     1   --> G_4            
     e( 54 - 54) =     46.33527  eV     1   --> G_3            
     e( 55 - 55) =     46.49121  eV     1   --> G_4            
     e( 56 - 56) =     46.80351  eV     1   --> G_3            
     e( 57 - 57) =     48.93512  eV     1   --> G_3            
     e( 58 - 58) =     49.17757  eV     1   --> G_4            

 **************************************************************************

 **************************************************************************

                    xk=(   0.00000,   0.07000,   0.00000  )

     Band symmetry, C_2v (mm2)  [C_s (m)    ] magnetic double point group,
     using C_s (m)    

     e(  1 -  1) =    -72.58689  eV     1   --> G_4            
     e(  2 -  2) =    -69.37270  eV     1   --> G_3            
     e(  3 -  3) =    -39.28145  eV     1   --> G_4            
     e(  4 -  4) =    -38.64355  eV     1   --> G_3            
     e(  5 -  5) =    -38.07920  eV     1   --> G_4            
     e(  6 -  6) =    -35.75140  eV     1   --> G_3            
     e(  7 -  7) =    -35.19327  eV     1   --> G_4            
     e(  8 -  8) =    -34.91070  eV     1   --> G_3            
     e(  9 -  9) =      7.13243  eV     1   --> G_4            
     e( 10 - 10) =      7.20858  eV     1   --> G_3            
     e( 11 - 11) =     10.90324  eV     1   --> G_4            
     e( 12 - 12) =     11.58721  eV     1   --> G_4            
     e( 13 - 13) =     12.00058  eV     1   --> G_3            
     e( 14 - 14) =     12.67676  eV     1   --> G_3            
     e( 15 - 15) =     13.34545  eV     1   --> G_4            
     e( 16 - 16) =     13.43086  eV     1   --> G_3            
     e( 17 - 17) =     13.45665  eV     1   --> G_4            
     e( 18 - 18) =     14.37855  eV     1   --> G_4            
     e( 19 - 19) =     14.47167  eV     1   --> G_3            
     e( 20 - 20) =     14.58245  eV     1   --> G_3            
     e( 21 - 21) =     14.66812  eV     1   --> G_4            
     e( 22 - 22) =     15.02483  eV     1   --> G_3            
     e( 23 - 23) =     15.21067  eV     1   --> G_3            
     e( 24 - 24) =     15.21288  eV     1   --> G_4            
     e( 25 - 25) =     15.50550  eV     1   --> G_3            
     e( 26 - 26) =     15.50924  eV     1   --> G_4            
     e( 27 - 27) =     16.29452  eV     1   --> G_3            
     e( 28 - 28) =     16.98645  eV     1   --> G_3            
     e( 29 - 29) =     17.63947  eV     1   --> G_4            
     e( 30 - 30) =     18.02821  eV     1   --> G_4            
     e( 31 - 31) =     18.55872  eV     1   --> G_4            
     e( 32 - 32) =     19.02402  eV     1   --> G_3            
     e( 33 - 33) =     25.04177  eV     1   --> G_4            
     e( 34 - 34) =     26.03160  eV     1   --> G_3            
     e( 35 - 35) =     29.41704  eV     1   --> G_4            
     e( 36 - 36) =     29.67765  eV     1   --> G_3            
     e( 37 - 37) =     30.81350  eV     1   --> G_3            
     e( 38 - 38) =     31.01662  eV     1   --> G_4            
     e( 39 - 39) =     36.06949  eV     1   --> G_4            
     e( 40 - 40) =     36.45267  eV     1   --> G_3            
     e( 41 - 41) =     38.34525  eV     1   --> G_3            
     e( 42 - 42) =     38.52265  eV     1   --> G_4            
     e( 43 - 43) =     39.86615  eV     1   --> G_4            
     e( 44 - 44) =     40.30903  eV     1   --> G_3            
     e( 45 - 45) =     41.34153  eV     1   --> G_4            
     e( 46 - 46) =     41.56758  eV     1   --> G_3            
     e( 47 - 47) =     41.95687  eV     1   --> G_4            
     e( 48 - 48) =     42.23588  eV     1   --> G_3            
     e( 49 - 49) =     43.11722  eV     1   --> G_3            
     e( 50 - 50) =     43.32234  eV     1   --> G_4            
     e( 51 - 51) =     45.48423  eV     1   --> G_3            
     e( 52 - 52) =     45.90250  eV     1   --> G_4            
     e( 53 - 53) =     46.10912  eV     1   --> G_4            
     e( 54 - 54) =     46.33970  eV     1   --> G_3            
     e( 55 - 55) =     46.78111  eV     1   --> G_4            
     e( 56 - 56) =     47.06966  eV     1   --> G_3            
     e( 57 - 57) =     49.24304  eV     1   --> G_3            
     e( 58 - 58) =     49.44280  eV     1   --> G_4            

 **************************************************************************

 **************************************************************************

                    xk=(   0.00000,   0.08000,   0.00000  )

     Band symmetry, C_2v (mm2)  [C_s (m)    ] magnetic double point group,
     using C_s (m)    

     e(  1 -  1) =    -72.58652  eV     1   --> G_4            
     e(  2 -  2) =    -69.37228  eV     1   --> G_3            
     e(  3 -  3) =    -39.28239  eV     1   --> G_4            
     e(  4 -  4) =    -38.64338  eV     1   --> G_3            
     e(  5 -  5) =    -38.08118  eV     1   --> G_4            
     e(  6 -  6) =    -35.75253  eV     1   --> G_3            
     e(  7 -  7) =    -35.19304  eV     1   --> G_4            
     e(  8 -  8) =    -34.91286  eV     1   --> G_3            
     e(  9 -  9) =      7.17133  eV     1   --> G_4            
     e( 10 - 10) =      7.24764  eV     1   --> G_3            
     e( 11 - 11) =     10.92409  eV     1   --> G_4            
     e( 12 - 12) =     11.60179  eV     1   --> G_4            
     e( 13 - 13) =     12.02284  eV     1   --> G_3            
     e( 14 - 14) =     12.68975  eV     1   --> G_3            
     e( 15 - 15) =     13.33533  eV     1   --> G_4            
     e( 16 - 16) =     13.43943  eV     1   --> G_3            
     e( 17 - 17) =     13.46489  eV     1   --> G_4            
     e( 18 - 18) =     14.38087  eV     1   --> G_4            
     e( 19 - 19) =     14.46124  eV     1   --> G_3            
     e( 20 - 20) =     14.56581  eV     1   --> G_3            
     e( 21 - 21) =     14.67476  eV     1   --> G_4            
     e( 22 - 22) =     15.03676  eV     1   --> G_3            
     e( 23 - 23) =     15.13614  eV     1   --> G_4            
     e( 24 - 24) =     15.19371  eV     1   --> G_3            
     e( 25 - 25) =     15.49718  eV     1   --> G_4            
     e( 26 - 26) =     15.49859  eV     1   --> G_3            
     e( 27 - 27) =     16.29756  eV     1   --> G_3            
     e( 28 - 28) =     16.87191  eV     1   --> G_3            
     e( 29 - 29) =     17.63428  eV     1   --> G_4            
     e( 30 - 30) =     18.00723  eV     1   --> G_4            
     e( 31 - 31) =     18.67482  eV     1   --> G_4            
     e( 32 - 32) =     19.17908  eV     1   --> G_3            
     e( 33 - 33) =     25.04915  eV     1   --> G_4            
     e( 34 - 34) =     26.03499  eV     1   --> G_3            
     e( 35 - 35) =     29.12559  eV     1   --> G_4            
     e( 36 - 36) =     29.40082  eV     1   --> G_3            
     e( 37 - 37) =     30.87119  eV     1   --> G_3            
     e( 38 - 38) =     31.07871  eV     1   --> G_4            
     e( 39 - 39) =     36.18505  eV     1   --> G_4            
     e( 40 - 40) =     36.56245  eV     1   --> G_3            
     e( 41 - 41) =     38.25737  eV     1   --> G_3            
     e( 42 - 42) =     38.40382  eV     1   --> G_4            
     e( 43 - 43) =     40.11261  eV     1   --> G_4            
     e( 44 - 44) =     40.54768  eV     1   --> G_3            
     e( 45 - 45) =     41.00235  eV     1   --> G_4            
     e( 46 - 46) =     41.23120  eV     1   --> G_3            
     e( 47 - 47) =     41.83129  eV     1   --> G_4            
     e( 48 - 48) =     42.10106  eV     1   --> G_3            
     e( 49 - 49) =     43.16944  eV     1   --> G_3            
     e( 50 - 50) =     43.37621  eV     1   --> G_4            
     e( 51 - 51) =     45.49999  eV     1   --> G_3            
     e( 52 - 52) =     45.91683  eV     1   --> G_4            
     e( 53 - 53) =     46.12425  eV     1   --> G_4            
     e( 54 - 54) =     46.31832  eV     1   --> G_3            
     e( 55 - 55) =     47.08433  eV     1   --> G_4            
     e( 56 - 56) =     47.34955  eV     1   --> G_3            
     e( 57 - 57) =     49.58382  eV     1   --> G_3            
     e( 58 - 58) =     49.74302  eV     1   --> G_4            

 **************************************************************************

 **************************************************************************

                    xk=(   0.00000,   0.09000,   0.00000  )

     Band symmetry, C_2v (mm2)  [C_s (m)    ] magnetic double point group,
     using C_s (m)    

     e(  1 -  1) =    -72.58611  eV     1   --> G_4            
     e(  2 -  2) =    -69.37182  eV     1   --> G_3            
     e(  3 -  3) =    -39.28351  eV     1   --> G_4            
     e(  4 -  4) =    -38.64320  eV     1   --> G_3            
     e(  5 -  5) =    -38.08345  eV     1   --> G_4            
     e(  6 -  6) =    -35.75385  eV     1   --> G_3            
     e(  7 -  7) =    -35.19278  eV     1   --> G_4            
     e(  8 -  8) =    -34.91532  eV     1   --> G_3            
     e(  9 -  9) =      7.21530  eV     1   --> G_4            
     e( 10 - 10) =      7.29181  eV     1   --> G_3            
     e( 11 - 11) =     10.94746  eV     1   --> G_4            
     e( 12 - 12) =     11.61819  eV     1   --> G_4            
     e( 13 - 13) =     12.04783  eV     1   --> G_3            
     e( 14 - 14) =     12.70430  eV     1   --> G_3            
     e( 15 - 15) =     13.32311  eV     1   --> G_4            
     e( 16 - 16) =     13.44910  eV     1   --> G_3            
     e( 17 - 17) =     13.47473  eV     1   --> G_4            
     e( 18 - 18) =     14.38377  eV     1   --> G_4            
     e( 19 - 19) =     14.44927  eV     1   --> G_3            
     e( 20 - 20) =     14.54739  eV     1   --> G_3            
     e( 21 - 21) =     14.68224  eV     1   --> G_4            
     e( 22 - 22) =     15.04988  eV     1   --> G_3            
     e( 23 - 23) =     15.05517  eV     1   --> G_4            
     e( 24 - 24) =     15.17481  eV     1   --> G_3            
     e( 25 - 25) =     15.48396  eV     1   --> G_4            
     e( 26 - 26) =     15.49080  eV     1   --> G_3            
     e( 27 - 27) =     16.30125  eV     1   --> G_3            
     e( 28 - 28) =     16.75927  eV     1   --> G_3            
     e( 29 - 29) =     17.62843  eV     1   --> G_4            
     e( 30 - 30) =     17.98387  eV     1   --> G_4            
     e( 31 - 31) =     18.80015  eV     1   --> G_4            
     e( 32 - 32) =     19.33761  eV     1   --> G_3            
     e( 33 - 33) =     25.05719  eV     1   --> G_4            
     e( 34 - 34) =     26.03848  eV     1   --> G_3            
     e( 35 - 35) =     28.82078  eV     1   --> G_4            
     e( 36 - 36) =     29.11034  eV     1   --> G_3            
     e( 37 - 37) =     30.93699  eV     1   --> G_3            
     e( 38 - 38) =     31.14905  eV     1   --> G_4            
     e( 39 - 39) =     36.29158  eV     1   --> G_4            
     e( 40 - 40) =     36.66385  eV     1   --> G_3            
     e( 41 - 41) =     38.15193  eV     1   --> G_3            
     e( 42 - 42) =     38.26308  eV     1   --> G_4            
     e( 43 - 43) =     40.39059  eV     1   --> G_4            
     e( 44 - 44) =     40.65597  eV     1   --> G_4            
     e( 45 - 45) =     40.81347  eV     1   --> G_3            
     e( 46 - 46) =     40.89194  eV     1   --> G_3            
     e( 47 - 47) =     41.72580  eV     1   --> G_4            
     e( 48 - 48) =     41.98090  eV     1   --> G_3            
     e( 49 - 49) =     43.22862  eV     1   --> G_3            
     e( 50 - 50) =     43.43692  eV     1   --> G_4            
     e( 51 - 51) =     45.51789  eV     1   --> G_3            
     e( 52 - 52) =     45.93288  eV     1   --> G_4            
     e( 53 - 53) =     46.11214  eV     1   --> G_4            
     e( 54 - 54) =     46.27424  eV     1   --> G_3            
     e( 55 - 55) =     47.39732  eV     1   --> G_4            
     e( 56 - 56) =     47.63977  eV     1   --> G_3            
     e( 57 - 57) =     49.95038  eV     1   --> G_3            
     e( 58 - 58) =     50.07229  eV     1   --> G_4            

 **************************************************************************

 **************************************************************************

                    xk=(   0.00000,   0.10000,   0.00000  )

     Band symmetry, C_2v (mm2)  [C_s (m)    ] magnetic double point group,
     using C_s (m)    

     e(  1 -  1) =    -72.58568  eV     1   --> G_4            
     e(  2 -  2) =    -69.37132  eV     1   --> G_3            
     e(  3 -  3) =    -39.28478  eV     1   --> G_4            
     e(  4 -  4) =    -38.64301  eV     1   --> G_3            
     e(  5 -  5) =    -38.08601  eV     1   --> G_4            
     e(  6 -  6) =    -35.75536  eV     1   --> G_3            
     e(  7 -  7) =    -35.19250  eV     1   --> G_4            
     e(  8 -  8) =    -34.91809  eV     1   --> G_3            
     e(  9 -  9) =      7.26429  eV     1   --> G_4            
     e( 10 - 10) =      7.34104  eV     1   --> G_3            
     e( 11 - 11) =     10.97327  eV     1   --> G_4            
     e( 12 - 12) =     11.63637  eV     1   --> G_4            
     e( 13 - 13) =     12.07546  eV     1   --> G_3            
     e( 14 - 14) =     12.72034  eV     1   --> G_3            
     e( 15 - 15) =     13.30896  eV     1   --> G_4            
     e( 16 - 16) =     13.45987  eV     1   --> G_3            
     e( 17 - 17) =     13.48590  eV     1   --> G_4            
     e( 18 - 18) =     14.38735  eV     1   --> G_4            
     e( 19 - 19) =     14.43568  eV     1   --> G_3            
     e( 20 - 20) =     14.52743  eV     1   --> G_3            
     e( 21 - 21) =     14.69047  eV     1   --> G_4            
     e( 22 - 22) =     14.97121  eV     1   --> G_4            
     e( 23 - 23) =     15.06396  eV     1   --> G_3            
     e( 24 - 24) =     15.15413  eV     1   --> G_3            
     e( 25 - 25) =     15.46958  eV     1   --> G_4            
     e( 26 - 26) =     15.48212  eV     1   --> G_3            
     e( 27 - 27) =     16.30567  eV     1   --> G_3            
     e( 28 - 28) =     16.64887  eV     1   --> G_3            
     e( 29 - 29) =     17.62191  eV     1   --> G_4            
     e( 30 - 30) =     17.95824  eV     1   --> G_4            
     e( 31 - 31) =     18.93366  eV     1   --> G_4            
     e( 32 - 32) =     19.49936  eV     1   --> G_3            
     e( 33 - 33) =     25.06570  eV     1   --> G_4            
     e( 34 - 34) =     26.04181  eV     1   --> G_3            
     e( 35 - 35) =     28.50635  eV     1   --> G_4            
     e( 36 - 36) =     28.81012  eV     1   --> G_3            
     e( 37 - 37) =     31.01057  eV     1   --> G_3            
     e( 38 - 38) =     31.22742  eV     1   --> G_4            
     e( 39 - 39) =     36.38799  eV     1   --> G_4            
     e( 40 - 40) =     36.75551  eV     1   --> G_3            
     e( 41 - 41) =     38.02801  eV     1   --> G_3            
     e( 42 - 42) =     38.10049  eV     1   --> G_4            
     e( 43 - 43) =     40.30310  eV     1   --> G_4            
     e( 44 - 44) =     40.53810  eV     1   --> G_3            
     e( 45 - 45) =     40.69986  eV     1   --> G_4            
     e( 46 - 46) =     41.11896  eV     1   --> G_3            
     e( 47 - 47) =     41.64239  eV     1   --> G_4            
     e( 48 - 48) =     41.87857  eV     1   --> G_3            
     e( 49 - 49) =     43.29444  eV     1   --> G_3            
     e( 50 - 50) =     43.50418  eV     1   --> G_4            
     e( 51 - 51) =     45.53792  eV     1   --> G_3            
     e( 52 - 52) =     45.95056  eV     1   --> G_4            
     e( 53 - 53) =     46.07555  eV     1   --> G_4            
     e( 54 - 54) =     46.21030  eV     1   --> G_3            
     e( 55 - 55) =     47.71755  eV     1   --> G_4            
     e( 56 - 56) =     47.93784  eV     1   --> G_3            
     e( 57 - 57) =     50.33688  eV     1   --> G_3            
     e( 58 - 58) =     50.42472  eV     1   --> G_4            

 **************************************************************************

 **************************************************************************

                    xk=(   0.00000,   0.11000,   0.00000  )

     Band symmetry, C_2v (mm2)  [C_s (m)    ] magnetic double point group,
     using C_s (m)    

     e(  1 -  1) =    -72.58521  eV     1   --> G_4            
     e(  2 -  2) =    -69.37077  eV     1   --> G_3            
     e(  3 -  3) =    -39.28620  eV     1   --> G_4            
     e(  4 -  4) =    -38.64282  eV     1   --> G_3            
     e(  5 -  5) =    -38.08874  eV     1   --> G_4            
     e(  6 -  6) =    -35.75703  eV     1   --> G_3            
     e(  7 -  7) =    -35.19221  eV     1   --> G_4            
     e(  8 -  8) =    -34.92105  eV     1   --> G_3            
     e(  9 -  9) =      7.31825  eV     1   --> G_4            
     e( 10 - 10) =      7.39529  eV     1   --> G_3            
     e( 11 - 11) =     11.00142  eV     1   --> G_4            
     e( 12 - 12) =     11.65627  eV     1   --> G_4            
     e( 13 - 13) =     12.10563  eV     1   --> G_3            
     e( 14 - 14) =     12.73781  eV     1   --> G_3            
     e( 15 - 15) =     13.29303  eV     1   --> G_4            
     e( 16 - 16) =     13.47172  eV     1   --> G_3            
     e( 17 - 17) =     13.49814  eV     1   --> G_4            
     e( 18 - 18) =     14.39173  eV     1   --> G_4            
     e( 19 - 19) =     14.42033  eV     1   --> G_3            
     e( 20 - 20) =     14.50619  eV     1   --> G_3            
     e( 21 - 21) =     14.69929  eV     1   --> G_4            
     e( 22 - 22) =     14.88543  eV     1   --> G_4            
     e( 23 - 23) =     15.07858  eV     1   --> G_3            
     e( 24 - 24) =     15.13204  eV     1   --> G_3            
     e( 25 - 25) =     15.45407  eV     1   --> G_4            
     e( 26 - 26) =     15.47258  eV     1   --> G_3            
     e( 27 - 27) =     16.31084  eV     1   --> G_3            
     e( 28 - 28) =     16.54099  eV     1   --> G_3            
     e( 29 - 29) =     17.61474  eV     1   --> G_4            
     e( 30 - 30) =     17.93052  eV     1   --> G_4            
     e( 31 - 31) =     19.07429  eV     1   --> G_4            
     e( 32 - 32) =     19.66399  eV     1   --> G_3            
     e( 33 - 33) =     25.07432  eV     1   --> G_4            
     e( 34 - 34) =     26.04453  eV     1   --> G_3            
     e( 35 - 35) =     28.18562  eV     1   --> G_4            
     e( 36 - 36) =     28.50365  eV     1   --> G_3            
     e( 37 - 37) =     31.09171  eV     1   --> G_3            
     e( 38 - 38) =     31.31361  eV     1   --> G_4            
     e( 39 - 39) =     36.47437  eV     1   --> G_4            
     e( 40 - 40) =     36.83716  eV     1   --> G_3            
     e( 41 - 41) =     37.88525  eV     1   --> G_3            
     e( 42 - 42) =     37.91694  eV     1   --> G_4            
     e( 43 - 43) =     39.94923  eV     1   --> G_4            
     e( 44 - 44) =     40.18843  eV     1   --> G_3            
     e( 45 - 45) =     41.03462  eV     1   --> G_4            
     e( 46 - 46) =     41.44539  eV     1   --> G_3            
     e( 47 - 47) =     41.58150  eV     1   --> G_4            
     e( 48 - 48) =     41.79589  eV     1   --> G_3            
     e( 49 - 49) =     43.36657  eV     1   --> G_3            
     e( 50 - 50) =     43.57767  eV     1   --> G_4            
     e( 51 - 51) =     45.56010  eV     1   --> G_3            
     e( 52 - 52) =     45.96855  eV     1   --> G_4            
     e( 53 - 53) =     46.01870  eV     1   --> G_4            
     e( 54 - 54) =     46.12900  eV     1   --> G_3            
     e( 55 - 55) =     48.04306  eV     1   --> G_4            
     e( 56 - 56) =     48.24181  eV     1   --> G_3            
     e( 57 - 57) =     50.73854  eV     1   --> G_3            
     e( 58 - 58) =     50.79471  eV     1   --> G_4            

 **************************************************************************

 **************************************************************************

                    xk=(   0.00000,   0.12000,   0.00000  )

     Band symmetry, C_2v (mm2)  [C_s (m)    ] magnetic double point group,
     using C_s (m)    

     e(  1 -  1) =    -72.58472  eV     1   --> G_4            
     e(  2 -  2) =    -69.37019  eV     1   --> G_3            
     e(  3 -  3) =    -39.28773  eV     1   --> G_4            
     e(  4 -  4) =    -38.64280  eV     1   --> G_3            
     e(  5 -  5) =    -38.09170  eV     1   --> G_4            
     e(  6 -  6) =    -35.75886  eV     1   --> G_3            
     e(  7 -  7) =    -35.19207  eV     1   --> G_4            
     e(  8 -  8) =    -34.92423  eV     1   --> G_3            
     e(  9 -  9) =      7.37711  eV     1   --> G_4            
     e( 10 - 10) =      7.45450  eV     1   --> G_3            
     e( 11 - 11) =     11.03180  eV     1   --> G_4            
     e( 12 - 12) =     11.67782  eV     1   --> G_4            
     e( 13 - 13) =     12.13824  eV     1   --> G_3            
     e( 14 - 14) =     12.75660  eV     1   --> G_3            
     e( 15 - 15) =     13.27547  eV     1   --> G_4            
     e( 16 - 16) =     13.48463  eV     1   --> G_3            
     e( 17 - 17) =     13.51114  eV     1   --> G_4            
     e( 18 - 18) =     14.39704  eV     1   --> G_4            
     e( 19 - 19) =     14.40302  eV     1   --> G_3            
     e( 20 - 20) =     14.48404  eV     1   --> G_3            
     e( 21 - 21) =     14.70786  eV     1   --> G_4            
     e( 22 - 22) =     14.79954  eV     1   --> G_4            
     e( 23 - 23) =     15.09079  eV     1   --> G_3            
     e( 24 - 24) =     15.11141  eV     1   --> G_3            
     e( 25 - 25) =     15.43747  eV     1   --> G_4            
     e( 26 - 26) =     15.46215  eV     1   --> G_3            
     e( 27 - 27) =     16.31646  eV     1   --> G_3            
     e( 28 - 28) =     16.43623  eV     1   --> G_3            
     e( 29 - 29) =     17.60691  eV     1   --> G_4            
     e( 30 - 30) =     17.90086  eV     1   --> G_4            
     e( 31 - 31) =     19.22140  eV     1   --> G_4            
     e( 32 - 32) =     19.83148  eV     1   --> G_3            
     e( 33 - 33) =     25.08252  eV     1   --> G_4            
     e( 34 - 34) =     26.04592  eV     1   --> G_3            
     e( 35 - 35) =     27.86124  eV     1   --> G_4            
     e( 36 - 36) =     28.19392  eV     1   --> G_3            
     e( 37 - 37) =     31.18010  eV     1   --> G_3            
     e( 38 - 38) =     31.40731  eV     1   --> G_4            
     e( 39 - 39) =     36.55135  eV     1   --> G_4            
     e( 40 - 40) =     36.90913  eV     1   --> G_3            
     e( 41 - 41) =     37.71412  eV     1   --> G_4            
     e( 42 - 42) =     37.72400  eV     1   --> G_3            
     e( 43 - 43) =     39.59390  eV     1   --> G_4            
     e( 44 - 44) =     39.83808  eV     1   --> G_3            
     e( 45 - 45) =     41.39368  eV     1   --> G_4            
     e( 46 - 46) =     41.54279  eV     1   --> G_4            
     e( 47 - 47) =     41.73382  eV     1   --> G_3            
     e( 48 - 48) =     41.79651  eV     1   --> G_3            
     e( 49 - 49) =     43.44458  eV     1   --> G_3            
     e( 50 - 50) =     43.65693  eV     1   --> G_4            
     e( 51 - 51) =     45.58445  eV     1   --> G_3            
     e( 52 - 52) =     45.93464  eV     1   --> G_4            
     e( 53 - 53) =     45.99623  eV     1   --> G_4            
     e( 54 - 54) =     46.03213  eV     1   --> G_3            
     e( 55 - 55) =     48.37233  eV     1   --> G_4            
     e( 56 - 56) =     48.55022  eV     1   --> G_3            
     e( 57 - 57) =     51.15007  eV     1   --> G_3            
     e( 58 - 58) =     51.17652  eV     1   --> G_4            

 **************************************************************************

 **************************************************************************

                    xk=(   0.00000,   0.13000,   0.00000  )

     Band symmetry, C_2v (mm2)  [C_s (m)    ] magnetic double point group,
     using C_s (m)    

     e(  1 -  1) =    -72.58411  eV     1   --> G_4            
     e(  2 -  2) =    -69.36953  eV     1   --> G_3            
     e(  3 -  3) =    -39.28916  eV     1   --> G_4            
     e(  4 -  4) =    -38.64248  eV     1   --> G_3            
     e(  5 -  5) =    -38.09464  eV     1   --> G_4            
     e(  6 -  6) =    -35.76062  eV     1   --> G_3            
     e(  7 -  7) =    -35.19165  eV     1   --> G_4            
     e(  8 -  8) =    -34.92741  eV     1   --> G_3            
     e(  9 -  9) =      7.44083  eV     1   --> G_4            
     e( 10 - 10) =      7.51864  eV     1   --> G_3            
     e( 11 - 11) =     11.06431  eV     1   --> G_4            
     e( 12 - 12) =     11.70096  eV     1   --> G_4            
     e( 13 - 13) =     12.17318  eV     1   --> G_3            
     e( 14 - 14) =     12.77664  eV     1   --> G_3            
     e( 15 - 15) =     13.25644  eV     1   --> G_4            
     e( 16 - 16) =     13.49861  eV     1   --> G_3            
     e( 17 - 17) =     13.52462  eV     1   --> G_4            
     e( 18 - 18) =     14.38354  eV     1   --> G_3            
     e( 19 - 19) =     14.40331  eV     1   --> G_4            
     e( 20 - 20) =     14.46140  eV     1   --> G_3            
     e( 21 - 21) =     14.69764  eV     1   --> G_4            
     e( 22 - 22) =     14.73290  eV     1   --> G_4            
     e( 23 - 23) =     15.07771  eV     1   --> G_3            
     e( 24 - 24) =     15.11501  eV     1   --> G_3            
     e( 25 - 25) =     15.41984  eV     1   --> G_4            
     e( 26 - 26) =     15.45088  eV     1   --> G_3            
     e( 27 - 27) =     16.31346  eV     1   --> G_3            
     e( 28 - 28) =     16.34396  eV     1   --> G_3            
     e( 29 - 29) =     17.59844  eV     1   --> G_4            
     e( 30 - 30) =     17.86945  eV     1   --> G_4            
     e( 31 - 31) =     19.37447  eV     1   --> G_4            
     e( 32 - 32) =     20.00180  eV     1   --> G_3            
     e( 33 - 33) =     25.08944  eV     1   --> G_4            
     e( 34 - 34) =     26.04471  eV     1   --> G_3            
     e( 35 - 35) =     27.53606  eV     1   --> G_4            
     e( 36 - 36) =     27.88419  eV     1   --> G_3            
     e( 37 - 37) =     31.27592  eV     1   --> G_3            
     e( 38 - 38) =     31.50865  eV     1   --> G_4            
     e( 39 - 39) =     36.62002  eV     1   --> G_4            
     e( 40 - 40) =     36.97212  eV     1   --> G_3            
     e( 41 - 41) =     37.49419  eV     1   --> G_4            
     e( 42 - 42) =     37.54519  eV     1   --> G_3            
     e( 43 - 43) =     39.23861  eV     1   --> G_4            
     e( 44 - 44) =     39.48866  eV     1   --> G_3            
     e( 45 - 45) =     41.52489  eV     1   --> G_4            
     e( 46 - 46) =     41.69273  eV     1   --> G_3            
     e( 47 - 47) =     41.77430  eV     1   --> G_4            
     e( 48 - 48) =     42.16936  eV     1   --> G_3            
     e( 49 - 49) =     43.52840  eV     1   --> G_3            
     e( 50 - 50) =     43.74181  eV     1   --> G_4            
     e( 51 - 51) =     45.61105  eV     1   --> G_3            
     e( 52 - 52) =     45.84073  eV     1   --> G_4            
     e( 53 - 53) =     45.92126  eV     1   --> G_3            
     e( 54 - 54) =     46.01853  eV     1   --> G_4            
     e( 55 - 55) =     48.70417  eV     1   --> G_4            
     e( 56 - 56) =     48.86194  eV     1   --> G_3            
     e( 57 - 57) =     51.23928  eV     1   --> G_3            
     e( 58 - 58) =     51.55654  eV     1   --> G_4            

 **************************************************************************

 **************************************************************************

                    xk=(   0.00000,   0.14000,   0.00000  )

     Band symmetry, C_2v (mm2)  [C_s (m)    ] magnetic double point group,
     using C_s (m)    

     e(  1 -  1) =    -72.58351  eV     1   --> G_4            
     e(  2 -  2) =    -69.36884  eV     1   --> G_3            
     e(  3 -  3) =    -39.29082  eV     1   --> G_4            
     e(  4 -  4) =    -38.64221  eV     1   --> G_3            
     e(  5 -  5) =    -38.09790  eV     1   --> G_4            
     e(  6 -  6) =    -35.76264  eV     1   --> G_3            
     e(  7 -  7) =    -35.19126  eV     1   --> G_4            
     e(  8 -  8) =    -34.93090  eV     1   --> G_3            
     e(  9 -  9) =      7.50931  eV     1   --> G_4            
     e( 10 - 10) =      7.58761  eV     1   --> G_3            
     e( 11 - 11) =     11.09881  eV     1   --> G_4            
     e( 12 - 12) =     11.72558  eV     1   --> G_4            
     e( 13 - 13) =     12.21032  eV     1   --> G_3            
     e( 14 - 14) =     12.79781  eV     1   --> G_3            
     e( 15 - 15) =     13.23602  eV     1   --> G_4            
     e( 16 - 16) =     13.51360  eV     1   --> G_3            
     e( 17 - 17) =     13.53824  eV     1   --> G_4            
     e( 18 - 18) =     14.36166  eV     1   --> G_3            
     e( 19 - 19) =     14.41039  eV     1   --> G_4            
     e( 20 - 20) =     14.43865  eV     1   --> G_3            
     e( 21 - 21) =     14.61910  eV     1   --> G_4            
     e( 22 - 22) =     14.73591  eV     1   --> G_4            
     e( 23 - 23) =     15.05159  eV     1   --> G_3            
     e( 24 - 24) =     15.13047  eV     1   --> G_3            
     e( 25 - 25) =     15.40127  eV     1   --> G_4            
     e( 26 - 26) =     15.43875  eV     1   --> G_3            
     e( 27 - 27) =     16.22877  eV     1   --> G_3            
     e( 28 - 28) =     16.33739  eV     1   --> G_3            
     e( 29 - 29) =     17.58932  eV     1   --> G_4            
     e( 30 - 30) =     17.83646  eV     1   --> G_4            
     e( 31 - 31) =     19.53274  eV     1   --> G_4            
     e( 32 - 32) =     20.17471  eV     1   --> G_3            
     e( 33 - 33) =     25.09359  eV     1   --> G_4            
     e( 34 - 34) =     26.03857  eV     1   --> G_3            
     e( 35 - 35) =     27.21284  eV     1   --> G_4            
     e( 36 - 36) =     27.57827  eV     1   --> G_3            
     e( 37 - 37) =     31.37876  eV     1   --> G_3            
     e( 38 - 38) =     31.61723  eV     1   --> G_4            
     e( 39 - 39) =     36.68147  eV     1   --> G_4            
     e( 40 - 40) =     37.02680  eV     1   --> G_3            
     e( 41 - 41) =     37.25946  eV     1   --> G_4            
     e( 42 - 42) =     37.35017  eV     1   --> G_3            
     e( 43 - 43) =     38.88406  eV     1   --> G_4            
     e( 44 - 44) =     39.14126  eV     1   --> G_3            
     e( 45 - 45) =     41.52623  eV     1   --> G_4            
     e( 46 - 46) =     41.67158  eV     1   --> G_3            
     e( 47 - 47) =     42.17347  eV     1   --> G_4            
     e( 48 - 48) =     42.56155  eV     1   --> G_3            
     e( 49 - 49) =     43.61735  eV     1   --> G_3            
     e( 50 - 50) =     43.83160  eV     1   --> G_4            
     e( 51 - 51) =     45.63967  eV     1   --> G_3            
     e( 52 - 52) =     45.73000  eV     1   --> G_4            
     e( 53 - 53) =     45.79772  eV     1   --> G_3            
     e( 54 - 54) =     46.04415  eV     1   --> G_4            
     e( 55 - 55) =     49.03748  eV     1   --> G_4            
     e( 56 - 56) =     49.17593  eV     1   --> G_3            
     e( 57 - 57) =     50.88115  eV     1   --> G_3            
     e( 58 - 58) =     51.43555  eV     1   --> G_4            

 **************************************************************************

 **************************************************************************

                    xk=(   0.00000,   0.15000,   0.00000  )

     Band symmetry, C_2v (mm2)  [C_s (m)    ] magnetic double point group,
     using C_s (m)    

     e(  1 -  1) =    -72.58288  eV     1   --> G_4            
     e(  2 -  2) =    -69.36813  eV     1   --> G_3            
     e(  3 -  3) =    -39.29262  eV     1   --> G_4            
     e(  4 -  4) =    -38.64203  eV     1   --> G_3            
     e(  5 -  5) =    -38.10130  eV     1   --> G_4            
     e(  6 -  6) =    -35.76482  eV     1   --> G_3            
     e(  7 -  7) =    -35.19095  eV     1   --> G_4            
     e(  8 -  8) =    -34.93454  eV     1   --> G_3            
     e(  9 -  9) =      7.58249  eV     1   --> G_4            
     e( 10 - 10) =      7.66138  eV     1   --> G_3            
     e( 11 - 11) =     11.13519  eV     1   --> G_4            
     e( 12 - 12) =     11.75161  eV     1   --> G_4            
     e( 13 - 13) =     12.24954  eV     1   --> G_3            
     e( 14 - 14) =     12.81998  eV     1   --> G_3            
     e( 15 - 15) =     13.21434  eV     1   --> G_4            
     e( 16 - 16) =     13.52960  eV     1   --> G_3            
     e( 17 - 17) =     13.55173  eV     1   --> G_4            
     e( 18 - 18) =     14.33722  eV     1   --> G_3            
     e( 19 - 19) =     14.41612  eV     1   --> G_3            
     e( 20 - 20) =     14.41686  eV     1   --> G_4            
     e( 21 - 21) =     14.53559  eV     1   --> G_4            
     e( 22 - 22) =     14.74730  eV     1   --> G_4            
     e( 23 - 23) =     15.02326  eV     1   --> G_3            
     e( 24 - 24) =     15.14685  eV     1   --> G_3            
     e( 25 - 25) =     15.38181  eV     1   --> G_4            
     e( 26 - 26) =     15.42577  eV     1   --> G_3            
     e( 27 - 27) =     16.13216  eV     1   --> G_3            
     e( 28 - 28) =     16.34699  eV     1   --> G_3            
     e( 29 - 29) =     17.57953  eV     1   --> G_4            
     e( 30 - 30) =     17.80209  eV     1   --> G_4            
     e( 31 - 31) =     19.69578  eV     1   --> G_4            
     e( 32 - 32) =     20.35013  eV     1   --> G_3            
     e( 33 - 33) =     25.09241  eV     1   --> G_4            
     e( 34 - 34) =     26.02296  eV     1   --> G_3            
     e( 35 - 35) =     26.89549  eV     1   --> G_4            
     e( 36 - 36) =     27.28208  eV     1   --> G_3            
     e( 37 - 37) =     31.48842  eV     1   --> G_3            
     e( 38 - 38) =     31.73282  eV     1   --> G_4            
     e( 39 - 39) =     36.73678  eV     1   --> G_4            
     e( 40 - 40) =     37.01223  eV     1   --> G_4            
     e( 41 - 41) =     37.07344  eV     1   --> G_3            
     e( 42 - 42) =     37.14075  eV     1   --> G_3            
     e( 43 - 43) =     38.53124  eV     1   --> G_4            
     e( 44 - 44) =     38.79738  eV     1   --> G_3            
     e( 45 - 45) =     41.54485  eV     1   --> G_4            
     e( 46 - 46) =     41.66932  eV     1   --> G_3            
     e( 47 - 47) =     42.58900  eV     1   --> G_4            
     e( 48 - 48) =     42.97083  eV     1   --> G_3            
     e( 49 - 49) =     43.71091  eV     1   --> G_3            
     e( 50 - 50) =     43.92570  eV     1   --> G_4            
     e( 51 - 51) =     45.60540  eV     1   --> G_4            
     e( 52 - 52) =     45.65597  eV     1   --> G_3            
     e( 53 - 53) =     45.67711  eV     1   --> G_3            
     e( 54 - 54) =     46.07200  eV     1   --> G_4            
     e( 55 - 55) =     49.37138  eV     1   --> G_4            
     e( 56 - 56) =     49.49140  eV     1   --> G_3            
     e( 57 - 57) =     50.52437  eV     1   --> G_3            
     e( 58 - 58) =     51.08725  eV     1   --> G_4            

 **************************************************************************

 **************************************************************************

                    xk=(   0.00000,   0.16000,   0.00000  )

     Band symmetry, C_2v (mm2)  [C_s (m)    ] magnetic double point group,
     using C_s (m)    

     e(  1 -  1) =    -72.58220  eV     1   --> G_4            
     e(  2 -  2) =    -69.36737  eV     1   --> G_3            
     e(  3 -  3) =    -39.29443  eV     1   --> G_4            
     e(  4 -  4) =    -38.64173  eV     1   --> G_3            
     e(  5 -  5) =    -38.10478  eV     1   --> G_4            
     e(  6 -  6) =    -35.76706  eV     1   --> G_3            
     e(  7 -  7) =    -35.19051  eV     1   --> G_4            
     e(  8 -  8) =    -34.93826  eV     1   --> G_3            
     e(  9 -  9) =      7.66027  eV     1   --> G_4            
     e( 10 - 10) =      7.73986  eV     1   --> G_3            
     e( 11 - 11) =     11.17332  eV     1   --> G_4            
     e( 12 - 12) =     11.77891  eV     1   --> G_4            
     e( 13 - 13) =     12.29070  eV     1   --> G_3            
     e( 14 - 14) =     12.84302  eV     1   --> G_3            
     e( 15 - 15) =     13.19151  eV     1   --> G_4            
     e( 16 - 16) =     13.54660  eV     1   --> G_3            
     e( 17 - 17) =     13.56475  eV     1   --> G_4            
     e( 18 - 18) =     14.31029  eV     1   --> G_3            
     e( 19 - 19) =     14.39401  eV     1   --> G_3            
     e( 20 - 20) =     14.40891  eV     1   --> G_4            
     e( 21 - 21) =     14.46857  eV     1   --> G_4            
     e( 22 - 22) =     14.76010  eV     1   --> G_4            
     e( 23 - 23) =     14.99358  eV     1   --> G_3            
     e( 24 - 24) =     15.16315  eV     1   --> G_3            
     e( 25 - 25) =     15.36157  eV     1   --> G_4            
     e( 26 - 26) =     15.41194  eV     1   --> G_3            
     e( 27 - 27) =     16.03762  eV     1   --> G_3            
     e( 28 - 28) =     16.35904  eV     1   --> G_3            
     e( 29 - 29) =     17.56906  eV     1   --> G_4            
     e( 30 - 30) =     17.76656  eV     1   --> G_4            
     e( 31 - 31) =     19.86333  eV     1   --> G_4            
     e( 32 - 32) =     20.52811  eV     1   --> G_3            
     e( 33 - 33) =     25.08123  eV     1   --> G_4            
     e( 34 - 34) =     25.98872  eV     1   --> G_3            
     e( 35 - 35) =     26.58975  eV     1   --> G_4            
     e( 36 - 36) =     27.00595  eV     1   --> G_3            
     e( 37 - 37) =     31.60493  eV     1   --> G_3            
     e( 38 - 38) =     31.85539  eV     1   --> G_4            
     e( 39 - 39) =     36.75445  eV     1   --> G_4            
     e( 40 - 40) =     36.78702  eV     1   --> G_4            
     e( 41 - 41) =     36.91811  eV     1   --> G_3            
     e( 42 - 42) =     37.11232  eV     1   --> G_3            
     e( 43 - 43) =     38.18090  eV     1   --> G_4            
     e( 44 - 44) =     38.45895  eV     1   --> G_3            
     e( 45 - 45) =     41.57911  eV     1   --> G_4            
     e( 46 - 46) =     41.68468  eV     1   --> G_3            
     e( 47 - 47) =     43.01855  eV     1   --> G_4            
     e( 48 - 48) =     43.39511  eV     1   --> G_3            
     e( 49 - 49) =     43.80852  eV     1   --> G_3            
     e( 50 - 50) =     44.02340  eV     1   --> G_4            
     e( 51 - 51) =     45.46877  eV     1   --> G_4            
     e( 52 - 52) =     45.51523  eV     1   --> G_3            
     e( 53 - 53) =     45.70532  eV     1   --> G_3            
     e( 54 - 54) =     46.10206  eV     1   --> G_4            
     e( 55 - 55) =     49.70511  eV     1   --> G_4            
     e( 56 - 56) =     49.80737  eV     1   --> G_3            
     e( 57 - 57) =     50.17328  eV     1   --> G_3            
     e( 58 - 58) =     50.74235  eV     1   --> G_4            

 **************************************************************************

 **************************************************************************

                    xk=(   0.00000,   0.17000,   0.00000  )

     Band symmetry, C_2v (mm2)  [C_s (m)    ] magnetic double point group,
     using C_s (m)    

     e(  1 -  1) =    -72.58155  eV     1   --> G_4            
     e(  2 -  2) =    -69.36661  eV     1   --> G_3            
     e(  3 -  3) =    -39.29655  eV     1   --> G_4            
     e(  4 -  4) =    -38.64152  eV     1   --> G_3            
     e(  5 -  5) =    -38.10856  eV     1   --> G_4            
     e(  6 -  6) =    -35.76961  eV     1   --> G_3            
     e(  7 -  7) =    -35.19015  eV     1   --> G_4            
     e(  8 -  8) =    -34.94226  eV     1   --> G_3            
     e(  9 -  9) =      7.74258  eV     1   --> G_4            
     e( 10 - 10) =      7.82297  eV     1   --> G_3            
     e( 11 - 11) =     11.21308  eV     1   --> G_4            
     e( 12 - 12) =     11.80737  eV     1   --> G_4            
     e( 13 - 13) =     12.33368  eV     1   --> G_3            
     e( 14 - 14) =     12.86679  eV     1   --> G_3            
     e( 15 - 15) =     13.16759  eV     1   --> G_4            
     e( 16 - 16) =     13.56454  eV     1   --> G_3            
     e( 17 - 17) =     13.57696  eV     1   --> G_4            
     e( 18 - 18) =     14.28102  eV     1   --> G_3            
     e( 19 - 19) =     14.34588  eV     1   --> G_4            
     e( 20 - 20) =     14.37231  eV     1   --> G_3            
     e( 21 - 21) =     14.45975  eV     1   --> G_4            
     e( 22 - 22) =     14.77374  eV     1   --> G_4            
     e( 23 - 23) =     14.96280  eV     1   --> G_3            
     e( 24 - 24) =     15.17896  eV     1   --> G_3            
     e( 25 - 25) =     15.34062  eV     1   --> G_4            
     e( 26 - 26) =     15.39726  eV     1   --> G_3            
     e( 27 - 27) =     15.94568  eV     1   --> G_3            
     e( 28 - 28) =     16.37315  eV     1   --> G_3            
     e( 29 - 29) =     17.55786  eV     1   --> G_4            
     e( 30 - 30) =     17.73012  eV     1   --> G_4            
     e( 31 - 31) =     20.03479  eV     1   --> G_4            
     e( 32 - 32) =     20.70837  eV     1   --> G_3            
     e( 33 - 33) =     25.05134  eV     1   --> G_4            
     e( 34 - 34) =     25.91820  eV     1   --> G_3            
     e( 35 - 35) =     26.30508  eV     1   --> G_4            
     e( 36 - 36) =     26.76842  eV     1   --> G_3            
     e( 37 - 37) =     31.72798  eV     1   --> G_3            
     e( 38 - 38) =     31.98462  eV     1   --> G_4            
     e( 39 - 39) =     36.48853  eV     1   --> G_4            
     e( 40 - 40) =     36.68476  eV     1   --> G_3            
     e( 41 - 41) =     36.83180  eV     1   --> G_4            
     e( 42 - 42) =     37.14002  eV     1   --> G_3            
     e( 43 - 43) =     37.83403  eV     1   --> G_4            
     e( 44 - 44) =     38.12978  eV     1   --> G_3            
     e( 45 - 45) =     41.62721  eV     1   --> G_4            
     e( 46 - 46) =     41.71601  eV     1   --> G_3            
     e( 47 - 47) =     43.45958  eV     1   --> G_4            
     e( 48 - 48) =     43.83194  eV     1   --> G_3            
     e( 49 - 49) =     43.90961  eV     1   --> G_3            
     e( 50 - 50) =     44.12373  eV     1   --> G_4            
     e( 51 - 51) =     45.32221  eV     1   --> G_4            
     e( 52 - 52) =     45.36015  eV     1   --> G_3            
     e( 53 - 53) =     45.74084  eV     1   --> G_3            
     e( 54 - 54) =     46.13421  eV     1   --> G_4            
     e( 55 - 55) =     49.82590  eV     1   --> G_3            
     e( 56 - 56) =     50.03759  eV     1   --> G_4            
     e( 57 - 57) =     50.12595  eV     1   --> G_3            
     e( 58 - 58) =     50.40404  eV     1   --> G_4            

 **************************************************************************

 **************************************************************************

                    xk=(   0.00000,   0.18000,   0.00000  )

     Band symmetry, C_2v (mm2)  [C_s (m)    ] magnetic double point group,
     using C_s (m)    

     e(  1 -  1) =    -72.58082  eV     1   --> G_4            
     e(  2 -  2) =    -69.36579  eV     1   --> G_3            
     e(  3 -  3) =    -39.29854  eV     1   --> G_4            
     e(  4 -  4) =    -38.64120  eV     1   --> G_3            
     e(  5 -  5) =    -38.11227  eV     1   --> G_4            
     e(  6 -  6) =    -35.77209  eV     1   --> G_3            
     e(  7 -  7) =    -35.18968  eV     1   --> G_4            
     e(  8 -  8) =    -34.94619  eV     1   --> G_3            
     e(  9 -  9) =      7.82930  eV     1   --> G_4            
     e( 10 - 10) =      7.91064  eV     1   --> G_3            
     e( 11 - 11) =     11.25433  eV     1   --> G_4            
     e( 12 - 12) =     11.83684  eV     1   --> G_4            
     e( 13 - 13) =     12.37832  eV     1   --> G_3            
     e( 14 - 14) =     12.89111  eV     1   --> G_3            
     e( 15 - 15) =     13.14274  eV     1   --> G_4            
     e( 16 - 16) =     13.58343  eV     1   --> G_3            
     e( 17 - 17) =     13.58807  eV     1   --> G_4            
     e( 18 - 18) =     14.24980  eV     1   --> G_3            
     e( 19 - 19) =     14.26507  eV     1   --> G_4            
     e( 20 - 20) =     14.35096  eV     1   --> G_3            
     e( 21 - 21) =     14.47256  eV     1   --> G_4            
     e( 22 - 22) =     14.78811  eV     1   --> G_4            
     e( 23 - 23) =     14.93112  eV     1   --> G_3            
     e( 24 - 24) =     15.19397  eV     1   --> G_3            
     e( 25 - 25) =     15.31909  eV     1   --> G_4            
     e( 26 - 26) =     15.38174  eV     1   --> G_3            
     e( 27 - 27) =     15.85651  eV     1   --> G_3            
     e( 28 - 28) =     16.38942  eV     1   --> G_3            
     e( 29 - 29) =     17.54585  eV     1   --> G_4            
     e( 30 - 30) =     17.69305  eV     1   --> G_4            
     e( 31 - 31) =     20.21033  eV     1   --> G_4            
     e( 32 - 32) =     20.89122  eV     1   --> G_3            
     e( 33 - 33) =     24.98744  eV     1   --> G_4            
     e( 34 - 34) =     25.78721  eV     1   --> G_3            
     e( 35 - 35) =     26.05773  eV     1   --> G_4            
     e( 36 - 36) =     26.59469  eV     1   --> G_3            
     e( 37 - 37) =     31.85756  eV     1   --> G_3            
[...]
     e( 30 - 30) =     16.85405  eV     1   --> G_2            
     e( 31 - 31) =     16.94716  eV     1   --> G_2            
     e( 32 - 32) =     18.00108  eV     1   --> G_2            
     e( 33 - 33) =     33.66585  eV     1   --> G_2            
     e( 34 - 34) =     33.79835  eV     1   --> G_2            
     e( 35 - 35) =     33.94010  eV     1   --> G_2            
     e( 36 - 36) =     34.02895  eV     1   --> G_2            
     e( 37 - 37) =     34.24664  eV     1   --> G_2            
     e( 38 - 38) =     34.35700  eV     1   --> G_2            
     e( 39 - 39) =     34.84807  eV     1   --> G_2            
     e( 40 - 40) =     34.86383  eV     1   --> G_2            
     e( 41 - 41) =     35.55509  eV     1   --> G_2            
     e( 42 - 42) =     35.64389  eV     1   --> G_2            
     e( 43 - 43) =     35.89148  eV     1   --> G_2            
     e( 44 - 44) =     36.38247  eV     1   --> G_2            
     e( 45 - 45) =     37.14163  eV     1   --> G_2            
     e( 46 - 46) =     37.14471  eV     1   --> G_2            
     e( 47 - 47) =     37.84270  eV     1   --> G_2            
     e( 48 - 48) =     38.33753  eV     1   --> G_2            
     e( 49 - 49) =     41.64119  eV     1   --> G_2            
     e( 50 - 50) =     41.95045  eV     1   --> G_2            
     e( 51 - 51) =     42.36968  eV     1   --> G_2            
     e( 52 - 52) =     42.40552  eV     1   --> G_2            
     e( 53 - 53) =     52.52919  eV     1   --> G_2            
     e( 54 - 54) =     52.77395  eV     1   --> G_2            
     e( 55 - 55) =     52.81406  eV     1   --> G_2            
     e( 56 - 56) =     52.98915  eV     1   --> G_2            
     e( 57 - 57) =     53.04282  eV     1   --> G_2            
     e( 58 - 58) =     53.23010  eV     1   --> G_2            

 **************************************************************************

 **************************************************************************

                    xk=(   0.03000,   0.03000,   0.34996  )

     Band symmetry, C_2  (2)    [C_1 (1)    ] magnetic double point group,
     using C_1 (1)    

     e(  1 -  1) =    -72.58751  eV     1   --> G_2            
     e(  2 -  2) =    -69.37334  eV     1   --> G_2            
     e(  3 -  3) =    -39.28128  eV     1   --> G_2            
     e(  4 -  4) =    -38.64649  eV     1   --> G_2            
     e(  5 -  5) =    -38.07548  eV     1   --> G_2            
     e(  6 -  6) =    -35.75158  eV     1   --> G_2            
     e(  7 -  7) =    -35.19674  eV     1   --> G_2            
     e(  8 -  8) =    -34.90709  eV     1   --> G_2            
     e(  9 -  9) =      9.77153  eV     1   --> G_2            
     e( 10 - 10) =      9.77934  eV     1   --> G_2            
     e( 11 - 11) =      9.80964  eV     1   --> G_2            
     e( 12 - 12) =     10.21224  eV     1   --> G_2            
     e( 13 - 13) =     12.30684  eV     1   --> G_2            
     e( 14 - 14) =     12.56818  eV     1   --> G_2            
     e( 15 - 15) =     13.25503  eV     1   --> G_2            
     e( 16 - 16) =     13.60294  eV     1   --> G_2            
     e( 17 - 17) =     13.77698  eV     1   --> G_2            
     e( 18 - 18) =     14.20484  eV     1   --> G_2            
     e( 19 - 19) =     14.27051  eV     1   --> G_2            
     e( 20 - 20) =     14.32249  eV     1   --> G_2            
     e( 21 - 21) =     14.33829  eV     1   --> G_2            
     e( 22 - 22) =     14.39018  eV     1   --> G_2            
     e( 23 - 23) =     14.54838  eV     1   --> G_2            
     e( 24 - 24) =     14.87305  eV     1   --> G_2            
     e( 25 - 25) =     14.94693  eV     1   --> G_2            
     e( 26 - 26) =     15.01031  eV     1   --> G_2            
     e( 27 - 27) =     15.07024  eV     1   --> G_2            
     e( 28 - 28) =     15.57411  eV     1   --> G_2            
     e( 29 - 29) =     16.23524  eV     1   --> G_2            
     e( 30 - 30) =     16.86075  eV     1   --> G_2            
     e( 31 - 31) =     16.91410  eV     1   --> G_2            
     e( 32 - 32) =     18.01090  eV     1   --> G_2            
     e( 33 - 33) =     34.00978  eV     1   --> G_2            
     e( 34 - 34) =     34.10795  eV     1   --> G_2            
     e( 35 - 35) =     34.23292  eV     1   --> G_2            
     e( 36 - 36) =     34.28383  eV     1   --> G_2            
     e( 37 - 37) =     34.55776  eV     1   --> G_2            
     e( 38 - 38) =     34.60507  eV     1   --> G_2            
     e( 39 - 39) =     35.11453  eV     1   --> G_2            
     e( 40 - 40) =     35.14316  eV     1   --> G_2            
     e( 41 - 41) =     35.41745  eV     1   --> G_2            
     e( 42 - 42) =     35.49446  eV     1   --> G_2            
     e( 43 - 43) =     35.77726  eV     1   --> G_2            
     e( 44 - 44) =     36.26526  eV     1   --> G_2            
     e( 45 - 45) =     36.74549  eV     1   --> G_2            
     e( 46 - 46) =     36.74728  eV     1   --> G_2            
     e( 47 - 47) =     37.48943  eV     1   --> G_2            
     e( 48 - 48) =     37.99986  eV     1   --> G_2            
     e( 49 - 49) =     41.44764  eV     1   --> G_2            
     e( 50 - 50) =     41.73775  eV     1   --> G_2            
     e( 51 - 51) =     42.19189  eV     1   --> G_2            
     e( 52 - 52) =     42.19302  eV     1   --> G_2            
     e( 53 - 53) =     52.97295  eV     1   --> G_2            
     e( 54 - 54) =     53.23363  eV     1   --> G_2            
     e( 55 - 55) =     53.27128  eV     1   --> G_2            
     e( 56 - 56) =     53.33067  eV     1   --> G_2            
     e( 57 - 57) =     53.46693  eV     1   --> G_2            
     e( 58 - 58) =     53.50185  eV     1   --> G_2            

 **************************************************************************

 **************************************************************************

                    xk=(   0.02000,   0.02000,   0.34996  )

     Band symmetry, C_2  (2)    [C_1 (1)    ] magnetic double point group,
     using C_1 (1)    

     e(  1 -  1) =    -72.58780  eV     1   --> G_2            
     e(  2 -  2) =    -69.37364  eV     1   --> G_2            
     e(  3 -  3) =    -39.28108  eV     1   --> G_2            
     e(  4 -  4) =    -38.64562  eV     1   --> G_2            
     e(  5 -  5) =    -38.07498  eV     1   --> G_2            
     e(  6 -  6) =    -35.75129  eV     1   --> G_2            
     e(  7 -  7) =    -35.19567  eV     1   --> G_2            
     e(  8 -  8) =    -34.90653  eV     1   --> G_2            
     e(  9 -  9) =      9.75053  eV     1   --> G_2            
     e( 10 - 10) =      9.76071  eV     1   --> G_2            
     e( 11 - 11) =      9.78747  eV     1   --> G_2            
     e( 12 - 12) =     10.19064  eV     1   --> G_2            
     e( 13 - 13) =     12.30059  eV     1   --> G_2            
     e( 14 - 14) =     12.56585  eV     1   --> G_2            
     e( 15 - 15) =     13.25018  eV     1   --> G_2            
     e( 16 - 16) =     13.62917  eV     1   --> G_2            
     e( 17 - 17) =     13.81749  eV     1   --> G_2            
     e( 18 - 18) =     14.20853  eV     1   --> G_2            
     e( 19 - 19) =     14.27125  eV     1   --> G_2            
     e( 20 - 20) =     14.30163  eV     1   --> G_2            
     e( 21 - 21) =     14.32629  eV     1   --> G_2            
     e( 22 - 22) =     14.37897  eV     1   --> G_2            
     e( 23 - 23) =     14.55354  eV     1   --> G_2            
     e( 24 - 24) =     14.85882  eV     1   --> G_2            
     e( 25 - 25) =     14.94013  eV     1   --> G_2            
     e( 26 - 26) =     15.02131  eV     1   --> G_2            
     e( 27 - 27) =     15.06239  eV     1   --> G_2            
     e( 28 - 28) =     15.59114  eV     1   --> G_2            
     e( 29 - 29) =     16.21023  eV     1   --> G_2            
     e( 30 - 30) =     16.86548  eV     1   --> G_2            
     e( 31 - 31) =     16.88983  eV     1   --> G_2            
     e( 32 - 32) =     18.01813  eV     1   --> G_2            
     e( 33 - 33) =     34.33000  eV     1   --> G_2            
     e( 34 - 34) =     34.37221  eV     1   --> G_2            
     e( 35 - 35) =     34.53019  eV     1   --> G_2            
     e( 36 - 36) =     34.54081  eV     1   --> G_2            
     e( 37 - 37) =     34.83068  eV     1   --> G_2            
     e( 38 - 38) =     34.83453  eV     1   --> G_2            
     e( 39 - 39) =     35.25035  eV     1   --> G_2            
     e( 40 - 40) =     35.30954  eV     1   --> G_2            
     e( 41 - 41) =     35.37649  eV     1   --> G_2            
     e( 42 - 42) =     35.41918  eV     1   --> G_2            
     e( 43 - 43) =     35.65402  eV     1   --> G_2            
     e( 44 - 44) =     36.13309  eV     1   --> G_2            
     e( 45 - 45) =     36.37619  eV     1   --> G_2            
     e( 46 - 46) =     36.38249  eV     1   --> G_2            
     e( 47 - 47) =     37.18048  eV     1   --> G_2            
     e( 48 - 48) =     37.70634  eV     1   --> G_2            
     e( 49 - 49) =     41.30425  eV     1   --> G_2            
     e( 50 - 50) =     41.57977  eV     1   --> G_2            
     e( 51 - 51) =     42.03362  eV     1   --> G_2            
     e( 52 - 52) =     42.06236  eV     1   --> G_2            
     e( 53 - 53) =     53.33338  eV     1   --> G_2            
     e( 54 - 54) =     53.46706  eV     1   --> G_2            
     e( 55 - 55) =     53.57281  eV     1   --> G_2            
     e( 56 - 56) =     53.67070  eV     1   --> G_2            
     e( 57 - 57) =     53.77280  eV     1   --> G_2            
     e( 58 - 58) =     53.80919  eV     1   --> G_2            

 **************************************************************************

 **************************************************************************

                    xk=(   0.01000,   0.01000,   0.34996  )

     Band symmetry, C_2  (2)    [C_1 (1)    ] magnetic double point group,
     using C_1 (1)    

     e(  1 -  1) =    -72.58795  eV     1   --> G_2            
     e(  2 -  2) =    -69.37382  eV     1   --> G_2            
     e(  3 -  3) =    -39.28094  eV     1   --> G_2            
     e(  4 -  4) =    -38.64503  eV     1   --> G_2            
     e(  5 -  5) =    -38.07463  eV     1   --> G_2            
     e(  6 -  6) =    -35.75108  eV     1   --> G_2            
     e(  7 -  7) =    -35.19496  eV     1   --> G_2            
     e(  8 -  8) =    -34.90615  eV     1   --> G_2            
     e(  9 -  9) =      9.73790  eV     1   --> G_2            
     e( 10 - 10) =      9.74949  eV     1   --> G_2            
     e( 11 - 11) =      9.77414  eV     1   --> G_2            
     e( 12 - 12) =     10.17765  eV     1   --> G_2            
     e( 13 - 13) =     12.29683  eV     1   --> G_2            
     e( 14 - 14) =     12.56444  eV     1   --> G_2            
     e( 15 - 15) =     13.24727  eV     1   --> G_2            
     e( 16 - 16) =     13.64611  eV     1   --> G_2            
     e( 17 - 17) =     13.84602  eV     1   --> G_2            
     e( 18 - 18) =     14.20962  eV     1   --> G_2            
     e( 19 - 19) =     14.27003  eV     1   --> G_2            
     e( 20 - 20) =     14.28217  eV     1   --> G_2            
     e( 21 - 21) =     14.32236  eV     1   --> G_2            
     e( 22 - 22) =     14.37216  eV     1   --> G_2            
     e( 23 - 23) =     14.55664  eV     1   --> G_2            
     e( 24 - 24) =     14.85104  eV     1   --> G_2            
     e( 25 - 25) =     14.93591  eV     1   --> G_2            
     e( 26 - 26) =     15.02617  eV     1   --> G_2            
     e( 27 - 27) =     15.06062  eV     1   --> G_2            
     e( 28 - 28) =     15.60164  eV     1   --> G_2            
     e( 29 - 29) =     16.19464  eV     1   --> G_2            
     e( 30 - 30) =     16.86782  eV     1   --> G_2            
     e( 31 - 31) =     16.87544  eV     1   --> G_2            
     e( 32 - 32) =     18.02254  eV     1   --> G_2            
     e( 33 - 33) =     34.58952  eV     1   --> G_2            
     e( 34 - 34) =     34.59135  eV     1   --> G_2            
     e( 35 - 35) =     34.76286  eV     1   --> G_2            
     e( 36 - 36) =     34.81983  eV     1   --> G_2            
     e( 37 - 37) =     35.00896  eV     1   --> G_2            
     e( 38 - 38) =     35.02997  eV     1   --> G_2            
     e( 39 - 39) =     35.12237  eV     1   --> G_2            
     e( 40 - 40) =     35.16068  eV     1   --> G_2            
     e( 41 - 41) =     35.51046  eV     1   --> G_2            
     e( 42 - 42) =     35.56893  eV     1   --> G_2            
     e( 43 - 43) =     35.62437  eV     1   --> G_2            
     e( 44 - 44) =     35.98917  eV     1   --> G_2            
     e( 45 - 45) =     36.06671  eV     1   --> G_2            
     e( 46 - 46) =     36.08767  eV     1   --> G_2            
     e( 47 - 47) =     36.95217  eV     1   --> G_2            
     e( 48 - 48) =     37.49142  eV     1   --> G_2            
     e( 49 - 49) =     41.21607  eV     1   --> G_2            
     e( 50 - 50) =     41.48237  eV     1   --> G_2            
     e( 51 - 51) =     41.93591  eV     1   --> G_2            
     e( 52 - 52) =     41.98241  eV     1   --> G_2            
     e( 53 - 53) =     53.57416  eV     1   --> G_2            
     e( 54 - 54) =     53.60712  eV     1   --> G_2            
     e( 55 - 55) =     53.79803  eV     1   --> G_2            
     e( 56 - 56) =     53.82024  eV     1   --> G_2            
     e( 57 - 57) =     54.04132  eV     1   --> G_2            
     e( 58 - 58) =     54.15047  eV     1   --> G_2            

 **************************************************************************

 **************************************************************************

                    xk=(   0.00000,   0.00000,   0.34996  )

     the magnetic double point group is D_2h (mmm)  [C_2h (2/m) ]
     using the double point group C_2h (2/m) 
     there are  8 classes and  4 irreducible representations
     the character table:

       E     -E    C2    -C2   i     -i    s_h   -s_h 
                                                      
G_3+   1.00 -1.00  0.00  0.00  1.00 -1.00  0.00  0.00
G_4+   1.00 -1.00  0.00  0.00  1.00 -1.00  0.00  0.00
G_3-   1.00 -1.00  0.00  0.00 -1.00  1.00  0.00  0.00
G_4-   1.00 -1.00  0.00  0.00 -1.00  1.00  0.00  0.00

     imaginary part

       E     -E    C2    -C2   i     -i    s_h   -s_h 
                                                      
G_3+   0.00  0.00  1.00 -1.00  0.00  0.00  1.00 -1.00
G_4+   0.00  0.00 -1.00  1.00  0.00  0.00 -1.00  1.00
G_3-   0.00  0.00  1.00 -1.00  0.00  0.00 -1.00  1.00
G_4-   0.00  0.00 -1.00  1.00  0.00  0.00  1.00 -1.00

     the symmetry operations in each class and the name of the first element:

     E             1
                                                                 
     -E           -1
                                                                 
     C2            2
                                                                 
     -C2          -2
                                                                 
     i             3
                                                                 
     -i           -3
                                                                 
     s_h           4
                                                                 
     -s_h         -4
                                                                 

     Band symmetry, D_2h (mmm)  [C_2h (2/m) ] magnetic double point group,
     using C_2h (2/m) 

     e(  1 -  1) =    -72.58798  eV     1   --> G_4+           
     e(  2 -  2) =    -69.37386  eV     1   --> G_3+           
     e(  3 -  3) =    -39.28075  eV     1   --> G_3-           
     e(  4 -  4) =    -38.64482  eV     1   --> G_4-           
     e(  5 -  5) =    -38.07443  eV     1   --> G_3-           
     e(  6 -  6) =    -35.75089  eV     1   --> G_4-           
     e(  7 -  7) =    -35.19471  eV     1   --> G_3-           
     e(  8 -  8) =    -34.90594  eV     1   --> G_4-           
     e(  9 -  9) =      9.73374  eV     1   --> G_4-           
     e( 10 - 10) =      9.74580  eV     1   --> G_3-           
     e( 11 - 11) =      9.76971  eV     1   --> G_4+           
     e( 12 - 12) =     10.17332  eV     1   --> G_3+           
     e( 13 - 13) =     12.29557  eV     1   --> G_4+           
     e( 14 - 14) =     12.56397  eV     1   --> G_3-           
     e( 15 - 15) =     13.24630  eV     1   --> G_4-           
     e( 16 - 16) =     13.65199  eV     1   --> G_4+           
     e( 17 - 17) =     13.85655  eV     1   --> G_3-           
     e( 18 - 18) =     14.20948  eV     1   --> G_3+           
     e( 19 - 19) =     14.26694  eV     1   --> G_4+           
     e( 20 - 20) =     14.27760  eV     1   --> G_3+           
     e( 21 - 21) =     14.32086  eV     1   --> G_4-           
     e( 22 - 22) =     14.36994  eV     1   --> G_3-           
     e( 23 - 23) =     14.55771  eV     1   --> G_4-           
     e( 24 - 24) =     14.84859  eV     1   --> G_3+           
     e( 25 - 25) =     14.93452  eV     1   --> G_4-           
     e( 26 - 26) =     15.02706  eV     1   --> G_3-           
     e( 27 - 27) =     15.06093  eV     1   --> G_4-           
     e( 28 - 28) =     15.60519  eV     1   --> G_3-           
     e( 29 - 29) =     16.18935  eV     1   --> G_3+           
     e( 30 - 30) =     16.86727  eV     1   --> G_4+           
     e( 31 - 31) =     16.87193  eV     1   --> G_3+           
     e( 32 - 32) =     18.02402  eV     1   --> G_4+           
     e( 33 - 33) =     34.70642  eV     1   --> G_4+           
     e( 34 - 34) =     34.70905  eV     1   --> G_3+           
     e( 35 - 35) =     34.94757  eV     1   --> G_4-           
     e( 36 - 36) =     34.96821  eV     1   --> G_3-           
     e( 37 - 37) =     34.96919  eV     1   --> G_4+           
     e( 38 - 38) =     34.97007  eV     1   --> G_3+           
     e( 39 - 39) =     35.14089  eV     1   --> G_4-           
     e( 40 - 40) =     35.14377  eV     1   --> G_3-           
     e( 41 - 41) =     35.44094  eV     1   --> G_4+           
     e( 42 - 42) =     35.69430  eV     1   --> G_4-           
     e( 43 - 43) =     35.69458  eV     1   --> G_3-           
     e( 44 - 44) =     35.88609  eV     1   --> G_3+           
     e( 45 - 45) =     35.92442  eV     1   --> G_4-           
     e( 46 - 46) =     35.96014  eV     1   --> G_3-           
     e( 47 - 47) =     36.86368  eV     1   --> G_4+           
     e( 48 - 48) =     37.40888  eV     1   --> G_3+           
     e( 49 - 49) =     41.18667  eV     1   --> G_3-           
     e( 50 - 50) =     41.44945  eV     1   --> G_4+           
     e( 51 - 51) =     41.90288  eV     1   --> G_3+           
     e( 52 - 52) =     41.95581  eV     1   --> G_4-           
     e( 53 - 54) =     53.65966  eV     2   --> G_3-           
     e( 53 - 54) =     53.65966  eV     2   --> G_4-           
     e( 55 - 56) =     53.87770  eV     2   --> G_3-           
     e( 55 - 56) =     53.87770  eV     2   --> G_4-           
     e( 57 - 58) =     54.27779  eV     2   --> G_3+           
     e( 57 - 58) =     54.27779  eV     2   --> G_4+           

 **************************************************************************
 
     BANDS        :   1m45.70s CPU   5m25.63s WALL

 
   This run was terminated on:  19: 4: 8  25Aug2023            

=------------------------------------------------------------------------------=
   JOB DONE.
=------------------------------------------------------------------------------=
