
     Program PWSCF v.7.0 starts on 25Aug2023 at 18:49:24 

     This program is part of the open-source Quantum ESPRESSO suite
     for quantum simulation of materials; please cite
         "P. Giannozzi et al., J. Phys.:Condens. Matter 21 395502 (2009);
         "P. Giannozzi et al., J. Phys.:Condens. Matter 29 465901 (2017);
         "P. Giannozzi et al., J. Chem. Phys. 152 154105 (2020);
          URL http://www.quantum-espresso.org", 
     in publications or presentations arising from this work. More details at
     http://www.quantum-espresso.org/quote

     Parallel version (MPI), running on    22 processors

     MPI processes distributed on     1 nodes
     R & G space division:  proc/nbgrp/npool/nimage =      22
     8633 MiB available memory on the printing compute node when the environment starts
 
     Waiting for input...
     Reading input from standard input

     Current dimensions of program PWSCF are:
     Max number of different atomic species (ntypx) = 10
     Max number of k-points (npk) =  40000
     Max angular momentum in pseudopotentials (lmaxx) =  4
     file Ni.rel-pbe-n-rrkjus_psl.0.1.UPF: wavefunction(s)  3D renormalized

     Fixed quantization axis for GGA:     1.000000    0.000000    0.000000

     Subspace diagonalization in iterative solution of the eigenvalue problem:
     a serial algorithm will be used

 
     Parallelization info
     --------------------
     sticks:   dense  smooth     PW     G-vecs:    dense   smooth      PW
     Min          63      20      6                 2543      474      84
     Max          64      22      7                 2548      477      89
     Sum        1389     457    145                55993    10451    1891
 
     Using Slab Decomposition
 


     bravais-lattice index     =            6
     lattice parameter (alat)  =       4.7368  a.u.
     unit-cell volume          =     151.8494 (a.u.)^3
     number of atoms/cell      =            2
     number of atomic types    =            2
     number of electrons       =        26.00
     number of Kohn-Sham states=           58
     kinetic-energy cutoff     =      64.0000  Ry
     charge density cutoff     =     782.0000  Ry
     Exchange-correlation= PBE
                           (   1   4   3   4   0   0   0)
     Noncollinear calculation with spin-orbit


     celldm(1)=   4.736808  celldm(2)=   0.000000  celldm(3)=   1.428748
     celldm(4)=   0.000000  celldm(5)=   0.000000  celldm(6)=   0.000000

     crystal axes: (cart. coord. in units of alat)
               a(1) = (   1.000000   0.000000   0.000000 )  
               a(2) = (   0.000000   1.000000   0.000000 )  
               a(3) = (   0.000000   0.000000   1.428748 )  

     reciprocal axes: (cart. coord. in units 2 pi/alat)
               b(1) = (  1.000000  0.000000  0.000000 )  
               b(2) = (  0.000000  1.000000  0.000000 )  
               b(3) = (  0.000000  0.000000  0.699913 )  


     PseudoPot. # 1 for Fe read from file:
     /home/koretsune/PWSCF/pseudo_psl031/Fe.rel-pbe-spn-rrkjus_psl.0.2.1.UPF
     MD5 check sum: e4688d448a4fb973b820eb5309e921a0
     Pseudo is Ultrasoft + core correction, Zval = 16.0
     Generated using "atomic" code by A. Dal Corso  v.5.0.99 svn rev. 10869
     Using radial grid of 1191 points, 10 beta functions with: 
                l(1) =   0
                l(2) =   0
                l(3) =   1
                l(4) =   1
                l(5) =   1
                l(6) =   1
                l(7) =   2
                l(8) =   2
                l(9) =   2
               l(10) =   2
     Q(r) pseudized with 0 coefficients 


     PseudoPot. # 2 for Ni read from file:
     /home/koretsune/PWSCF/pseudo_psl031/Ni.rel-pbe-n-rrkjus_psl.0.1.UPF
     MD5 check sum: 6acd078e557c765e7fbba3d1e9889675
     Pseudo is Ultrasoft + core correction, Zval = 10.0
     Generated using "atomic" code by A. Dal Corso  v.5.0.99 svn rev. 10869
     Using radial grid of 1195 points, 10 beta functions with: 
                l(1) =   0
                l(2) =   0
                l(3) =   1
                l(4) =   1
                l(5) =   1
                l(6) =   1
                l(7) =   2
                l(8) =   2
                l(9) =   2
               l(10) =   2
     Q(r) pseudized with 0 coefficients 


     atomic species   valence    mass     pseudopotential
        Fe            16.00    55.84500     Fe( 1.00)
        Ni            10.00    58.69340     Ni( 1.00)

      8 Sym. Ops., with inversion, found


                                    s                        frac. trans.

      isym =  1     identity                                     

 Time Reversal            0
 cryst.   s( 1) = (     1          0          0      )
                  (     0          1          0      )
                  (     0          0          1      )

 cart.    s( 1) = (  1.0000000  0.0000000  0.0000000 )
                  (  0.0000000  1.0000000  0.0000000 )
                  (  0.0000000  0.0000000  1.0000000 )


      isym =  2     180 deg rotation - cart. axis [0,0,1]        

 Time Reversal            1
 cryst.   s( 2) = (    -1          0          0      )
                  (     0         -1          0      )
                  (     0          0          1      )

 cart.    s( 2) = ( -1.0000000  0.0000000  0.0000000 )
                  (  0.0000000 -1.0000000  0.0000000 )
                  (  0.0000000  0.0000000  1.0000000 )


      isym =  3     180 deg rotation - cart. axis [0,1,0]        

 Time Reversal            1
 cryst.   s( 3) = (    -1          0          0      )
                  (     0          1          0      )
                  (     0          0         -1      )

 cart.    s( 3) = ( -1.0000000  0.0000000  0.0000000 )
                  (  0.0000000  1.0000000  0.0000000 )
                  (  0.0000000  0.0000000 -1.0000000 )


      isym =  4     180 deg rotation - cart. axis [1,0,0]        

 Time Reversal            0
 cryst.   s( 4) = (     1          0          0      )
                  (     0         -1          0      )
                  (     0          0         -1      )

 cart.    s( 4) = (  1.0000000  0.0000000  0.0000000 )
                  (  0.0000000 -1.0000000  0.0000000 )
                  (  0.0000000  0.0000000 -1.0000000 )


      isym =  5     inversion                                    

 Time Reversal            0
 cryst.   s( 5) = (    -1          0          0      )
                  (     0         -1          0      )
                  (     0          0         -1      )

 cart.    s( 5) = ( -1.0000000  0.0000000  0.0000000 )
                  (  0.0000000 -1.0000000  0.0000000 )
                  (  0.0000000  0.0000000 -1.0000000 )


      isym =  6     inv. 180 deg rotation - cart. axis [0,0,1]   

 Time Reversal            1
 cryst.   s( 6) = (     1          0          0      )
                  (     0          1          0      )
                  (     0          0         -1      )

 cart.    s( 6) = (  1.0000000  0.0000000  0.0000000 )
                  (  0.0000000  1.0000000  0.0000000 )
                  (  0.0000000  0.0000000 -1.0000000 )


      isym =  7     inv. 180 deg rotation - cart. axis [0,1,0]   

 Time Reversal            1
 cryst.   s( 7) = (     1          0          0      )
                  (     0         -1          0      )
                  (     0          0          1      )

 cart.    s( 7) = (  1.0000000  0.0000000  0.0000000 )
                  (  0.0000000 -1.0000000  0.0000000 )
                  (  0.0000000  0.0000000  1.0000000 )


      isym =  8     inv. 180 deg rotation - cart. axis [1,0,0]   

 Time Reversal            0
 cryst.   s( 8) = (    -1          0          0      )
                  (     0          1          0      )
                  (     0          0          1      )

 cart.    s( 8) = ( -1.0000000  0.0000000  0.0000000 )
                  (  0.0000000  1.0000000  0.0000000 )
                  (  0.0000000  0.0000000  1.0000000 )


     the magnetic double point group is D_2h (mmm)  [C_2h (2/m) ]
     using the double point group C_2h (2/m) 
     there are  8 classes and  4 irreducible representations
     the character table:

       E     -E    C2    -C2   i     -i    s_h   -s_h 
                                                      
G_3+   1.00 -1.00  0.00  0.00  1.00 -1.00  0.00  0.00
G_4+   1.00 -1.00  0.00  0.00  1.00 -1.00  0.00  0.00
G_3-   1.00 -1.00  0.00  0.00 -1.00  1.00  0.00  0.00
G_4-   1.00 -1.00  0.00  0.00 -1.00  1.00  0.00  0.00

     imaginary part

       E     -E    C2    -C2   i     -i    s_h   -s_h 
                                                      
G_3+   0.00  0.00  1.00 -1.00  0.00  0.00  1.00 -1.00
G_4+   0.00  0.00 -1.00  1.00  0.00  0.00 -1.00  1.00
G_3-   0.00  0.00  1.00 -1.00  0.00  0.00 -1.00  1.00
G_4-   0.00  0.00 -1.00  1.00  0.00  0.00  1.00 -1.00

     the symmetry operations in each class and the name of the first element:

     E             1
          identity                                               
     -E           -1
          identity E                                             
     C2            2
          180 deg rotation - cart. axis [1,0,0]                  
     -C2          -2
          180 deg rotation - cart. axis [1,0,0] E                
     i             3
          inversion                                              
     -i           -3
          inversion E                                            
     s_h           4
          inv. 180 deg rotation - cart. axis [1,0,0]             
     -s_h         -4
          inv. 180 deg rotation - cart. axis [1,0,0] E           

   Cartesian axes

     site n.     atom                  positions (alat units)
         1           Fe  tau(   1) = (   0.0000000   0.0000000   0.0000000  )
         2           Ni  tau(   2) = (   0.5000000   0.5000000   0.7143741  )

   Crystallographic axes

     site n.     atom                  positions (cryst. coord.)
         1           Fe  tau(   1) = (  0.0000000  0.0000000  0.0000000  )
         2           Ni  tau(   2) = (  0.5000000  0.5000000  0.5000000  )

     number of k points=   351  Methfessel-Paxton smearing, width (Ry)=  0.0100
                       cart. coord. in units 2pi/alat
        k(    1) = (   0.0000000   0.0000000   0.0000000), wk =   0.0028490
        k(    2) = (   0.0000000   0.0100000   0.0000000), wk =   0.0028490
        k(    3) = (   0.0000000   0.0200000   0.0000000), wk =   0.0028490
        k(    4) = (   0.0000000   0.0300000   0.0000000), wk =   0.0028490
        k(    5) = (   0.0000000   0.0400000   0.0000000), wk =   0.0028490
        k(    6) = (   0.0000000   0.0500000   0.0000000), wk =   0.0028490
        k(    7) = (   0.0000000   0.0600000   0.0000000), wk =   0.0028490
        k(    8) = (   0.0000000   0.0700000   0.0000000), wk =   0.0028490
        k(    9) = (   0.0000000   0.0800000   0.0000000), wk =   0.0028490
        k(   10) = (   0.0000000   0.0900000   0.0000000), wk =   0.0028490
        k(   11) = (   0.0000000   0.1000000   0.0000000), wk =   0.0028490
        k(   12) = (   0.0000000   0.1100000   0.0000000), wk =   0.0028490
        k(   13) = (   0.0000000   0.1200000   0.0000000), wk =   0.0028490
        k(   14) = (   0.0000000   0.1300000   0.0000000), wk =   0.0028490
        k(   15) = (   0.0000000   0.1400000   0.0000000), wk =   0.0028490
        k(   16) = (   0.0000000   0.1500000   0.0000000), wk =   0.0028490
        k(   17) = (   0.0000000   0.1600000   0.0000000), wk =   0.0028490
        k(   18) = (   0.0000000   0.1700000   0.0000000), wk =   0.0028490
        k(   19) = (   0.0000000   0.1800000   0.0000000), wk =   0.0028490
        k(   20) = (   0.0000000   0.1900000   0.0000000), wk =   0.0028490
        k(   21) = (   0.0000000   0.2000000   0.0000000), wk =   0.0028490
        k(   22) = (   0.0000000   0.2100000   0.0000000), wk =   0.0028490
        k(   23) = (   0.0000000   0.2200000   0.0000000), wk =   0.0028490
        k(   24) = (   0.0000000   0.2300000   0.0000000), wk =   0.0028490
        k(   25) = (   0.0000000   0.2400000   0.0000000), wk =   0.0028490
        k(   26) = (   0.0000000   0.2500000   0.0000000), wk =   0.0028490
        k(   27) = (   0.0000000   0.2600000   0.0000000), wk =   0.0028490
        k(   28) = (   0.0000000   0.2700000   0.0000000), wk =   0.0028490
        k(   29) = (   0.0000000   0.2800000   0.0000000), wk =   0.0028490
        k(   30) = (   0.0000000   0.2900000   0.0000000), wk =   0.0028490
        k(   31) = (   0.0000000   0.3000000   0.0000000), wk =   0.0028490
        k(   32) = (   0.0000000   0.3100000   0.0000000), wk =   0.0028490
        k(   33) = (   0.0000000   0.3200000   0.0000000), wk =   0.0028490
        k(   34) = (   0.0000000   0.3300000   0.0000000), wk =   0.0028490
        k(   35) = (   0.0000000   0.3400000   0.0000000), wk =   0.0028490
        k(   36) = (   0.0000000   0.3500000   0.0000000), wk =   0.0028490
        k(   37) = (   0.0000000   0.3600000   0.0000000), wk =   0.0028490
        k(   38) = (   0.0000000   0.3700000   0.0000000), wk =   0.0028490
        k(   39) = (   0.0000000   0.3800000   0.0000000), wk =   0.0028490
        k(   40) = (   0.0000000   0.3900000   0.0000000), wk =   0.0028490
        k(   41) = (   0.0000000   0.4000000   0.0000000), wk =   0.0028490
        k(   42) = (   0.0000000   0.4100000   0.0000000), wk =   0.0028490
        k(   43) = (   0.0000000   0.4200000   0.0000000), wk =   0.0028490
        k(   44) = (   0.0000000   0.4300000   0.0000000), wk =   0.0028490
        k(   45) = (   0.0000000   0.4400000   0.0000000), wk =   0.0028490
        k(   46) = (   0.0000000   0.4500000   0.0000000), wk =   0.0028490
        k(   47) = (   0.0000000   0.4600000   0.0000000), wk =   0.0028490
        k(   48) = (   0.0000000   0.4700000   0.0000000), wk =   0.0028490
        k(   49) = (   0.0000000   0.4800000   0.0000000), wk =   0.0028490
        k(   50) = (   0.0000000   0.4900000   0.0000000), wk =   0.0028490
        k(   51) = (   0.0000000   0.5000000   0.0000000), wk =   0.0028490
        k(   52) = (   0.0100000   0.5000000   0.0000000), wk =   0.0028490
        k(   53) = (   0.0200000   0.5000000   0.0000000), wk =   0.0028490
        k(   54) = (   0.0300000   0.5000000   0.0000000), wk =   0.0028490
        k(   55) = (   0.0400000   0.5000000   0.0000000), wk =   0.0028490
        k(   56) = (   0.0500000   0.5000000   0.0000000), wk =   0.0028490
        k(   57) = (   0.0600000   0.5000000   0.0000000), wk =   0.0028490
        k(   58) = (   0.0700000   0.5000000   0.0000000), wk =   0.0028490
        k(   59) = (   0.0800000   0.5000000   0.0000000), wk =   0.0028490
        k(   60) = (   0.0900000   0.5000000   0.0000000), wk =   0.0028490
        k(   61) = (   0.1000000   0.5000000   0.0000000), wk =   0.0028490
        k(   62) = (   0.1100000   0.5000000   0.0000000), wk =   0.0028490
        k(   63) = (   0.1200000   0.5000000   0.0000000), wk =   0.0028490
        k(   64) = (   0.1300000   0.5000000   0.0000000), wk =   0.0028490
        k(   65) = (   0.1400000   0.5000000   0.0000000), wk =   0.0028490
        k(   66) = (   0.1500000   0.5000000   0.0000000), wk =   0.0028490
        k(   67) = (   0.1600000   0.5000000   0.0000000), wk =   0.0028490
        k(   68) = (   0.1700000   0.5000000   0.0000000), wk =   0.0028490
        k(   69) = (   0.1800000   0.5000000   0.0000000), wk =   0.0028490
        k(   70) = (   0.1900000   0.5000000   0.0000000), wk =   0.0028490
        k(   71) = (   0.2000000   0.5000000   0.0000000), wk =   0.0028490
        k(   72) = (   0.2100000   0.5000000   0.0000000), wk =   0.0028490
        k(   73) = (   0.2200000   0.5000000   0.0000000), wk =   0.0028490
        k(   74) = (   0.2300000   0.5000000   0.0000000), wk =   0.0028490
        k(   75) = (   0.2400000   0.5000000   0.0000000), wk =   0.0028490
        k(   76) = (   0.2500000   0.5000000   0.0000000), wk =   0.0028490
        k(   77) = (   0.2600000   0.5000000   0.0000000), wk =   0.0028490
        k(   78) = (   0.2700000   0.5000000   0.0000000), wk =   0.0028490
        k(   79) = (   0.2800000   0.5000000   0.0000000), wk =   0.0028490
        k(   80) = (   0.2900000   0.5000000   0.0000000), wk =   0.0028490
        k(   81) = (   0.3000000   0.5000000   0.0000000), wk =   0.0028490
        k(   82) = (   0.3100000   0.5000000   0.0000000), wk =   0.0028490
        k(   83) = (   0.3200000   0.5000000   0.0000000), wk =   0.0028490
        k(   84) = (   0.3300000   0.5000000   0.0000000), wk =   0.0028490
        k(   85) = (   0.3400000   0.5000000   0.0000000), wk =   0.0028490
        k(   86) = (   0.3500000   0.5000000   0.0000000), wk =   0.0028490
        k(   87) = (   0.3600000   0.5000000   0.0000000), wk =   0.0028490
        k(   88) = (   0.3700000   0.5000000   0.0000000), wk =   0.0028490
        k(   89) = (   0.3800000   0.5000000   0.0000000), wk =   0.0028490
        k(   90) = (   0.3900000   0.5000000   0.0000000), wk =   0.0028490
        k(   91) = (   0.4000000   0.5000000   0.0000000), wk =   0.0028490
        k(   92) = (   0.4100000   0.5000000   0.0000000), wk =   0.0028490
        k(   93) = (   0.4200000   0.5000000   0.0000000), wk =   0.0028490
        k(   94) = (   0.4300000   0.5000000   0.0000000), wk =   0.0028490
        k(   95) = (   0.4400000   0.5000000   0.0000000), wk =   0.0028490
        k(   96) = (   0.4500000   0.5000000   0.0000000), wk =   0.0028490
        k(   97) = (   0.4600000   0.5000000   0.0000000), wk =   0.0028490
        k(   98) = (   0.4700000   0.5000000   0.0000000), wk =   0.0028490
        k(   99) = (   0.4800000   0.5000000   0.0000000), wk =   0.0028490
        k(  100) = (   0.4900000   0.5000000   0.0000000), wk =   0.0028490
        k(  101) = (   0.5000000   0.5000000   0.0000000), wk =   0.0028490
        k(  102) = (   0.4900000   0.4900000   0.0000000), wk =   0.0028490
        k(  103) = (   0.4800000   0.4800000   0.0000000), wk =   0.0028490
        k(  104) = (   0.4700000   0.4700000   0.0000000), wk =   0.0028490
        k(  105) = (   0.4600000   0.4600000   0.0000000), wk =   0.0028490
        k(  106) = (   0.4500000   0.4500000   0.0000000), wk =   0.0028490
        k(  107) = (   0.4400000   0.4400000   0.0000000), wk =   0.0028490
        k(  108) = (   0.4300000   0.4300000   0.0000000), wk =   0.0028490
        k(  109) = (   0.4200000   0.4200000   0.0000000), wk =   0.0028490
        k(  110) = (   0.4100000   0.4100000   0.0000000), wk =   0.0028490
        k(  111) = (   0.4000000   0.4000000   0.0000000), wk =   0.0028490
        k(  112) = (   0.3900000   0.3900000   0.0000000), wk =   0.0028490
        k(  113) = (   0.3800000   0.3800000   0.0000000), wk =   0.0028490
        k(  114) = (   0.3700000   0.3700000   0.0000000), wk =   0.0028490
        k(  115) = (   0.3600000   0.3600000   0.0000000), wk =   0.0028490
        k(  116) = (   0.3500000   0.3500000   0.0000000), wk =   0.0028490
        k(  117) = (   0.3400000   0.3400000   0.0000000), wk =   0.0028490
        k(  118) = (   0.3300000   0.3300000   0.0000000), wk =   0.0028490
        k(  119) = (   0.3200000   0.3200000   0.0000000), wk =   0.0028490
        k(  120) = (   0.3100000   0.3100000   0.0000000), wk =   0.0028490
        k(  121) = (   0.3000000   0.3000000   0.0000000), wk =   0.0028490
        k(  122) = (   0.2900000   0.2900000   0.0000000), wk =   0.0028490
        k(  123) = (   0.2800000   0.2800000   0.0000000), wk =   0.0028490
        k(  124) = (   0.2700000   0.2700000   0.0000000), wk =   0.0028490
        k(  125) = (   0.2600000   0.2600000   0.0000000), wk =   0.0028490
        k(  126) = (   0.2500000   0.2500000   0.0000000), wk =   0.0028490
        k(  127) = (   0.2400000   0.2400000   0.0000000), wk =   0.0028490
        k(  128) = (   0.2300000   0.2300000   0.0000000), wk =   0.0028490
        k(  129) = (   0.2200000   0.2200000   0.0000000), wk =   0.0028490
        k(  130) = (   0.2100000   0.2100000   0.0000000), wk =   0.0028490
        k(  131) = (   0.2000000   0.2000000   0.0000000), wk =   0.0028490
        k(  132) = (   0.1900000   0.1900000   0.0000000), wk =   0.0028490
        k(  133) = (   0.1800000   0.1800000   0.0000000), wk =   0.0028490
        k(  134) = (   0.1700000   0.1700000   0.0000000), wk =   0.0028490
        k(  135) = (   0.1600000   0.1600000   0.0000000), wk =   0.0028490
        k(  136) = (   0.1500000   0.1500000   0.0000000), wk =   0.0028490
        k(  137) = (   0.1400000   0.1400000   0.0000000), wk =   0.0028490
        k(  138) = (   0.1300000   0.1300000   0.0000000), wk =   0.0028490
        k(  139) = (   0.1200000   0.1200000   0.0000000), wk =   0.0028490
        k(  140) = (   0.1100000   0.1100000   0.0000000), wk =   0.0028490
        k(  141) = (   0.1000000   0.1000000   0.0000000), wk =   0.0028490
        k(  142) = (   0.0900000   0.0900000   0.0000000), wk =   0.0028490
        k(  143) = (   0.0800000   0.0800000   0.0000000), wk =   0.0028490
        k(  144) = (   0.0700000   0.0700000   0.0000000), wk =   0.0028490
        k(  145) = (   0.0600000   0.0600000   0.0000000), wk =   0.0028490
        k(  146) = (   0.0500000   0.0500000   0.0000000), wk =   0.0028490
        k(  147) = (   0.0400000   0.0400000   0.0000000), wk =   0.0028490
        k(  148) = (   0.0300000   0.0300000   0.0000000), wk =   0.0028490
        k(  149) = (   0.0200000   0.0200000   0.0000000), wk =   0.0028490
        k(  150) = (   0.0100000   0.0100000   0.0000000), wk =   0.0028490
        k(  151) = (   0.0000000   0.0000000   0.0000000), wk =   0.0028490
        k(  152) = (   0.0000000   0.0000000   0.0069991), wk =   0.0028490
        k(  153) = (   0.0000000   0.0000000   0.0139983), wk =   0.0028490
        k(  154) = (   0.0000000   0.0000000   0.0209974), wk =   0.0028490
        k(  155) = (   0.0000000   0.0000000   0.0279965), wk =   0.0028490
        k(  156) = (   0.0000000   0.0000000   0.0349957), wk =   0.0028490
        k(  157) = (   0.0000000   0.0000000   0.0419948), wk =   0.0028490
        k(  158) = (   0.0000000   0.0000000   0.0489939), wk =   0.0028490
        k(  159) = (   0.0000000   0.0000000   0.0559931), wk =   0.0028490
        k(  160) = (   0.0000000   0.0000000   0.0629922), wk =   0.0028490
        k(  161) = (   0.0000000   0.0000000   0.0699913), wk =   0.0028490
        k(  162) = (   0.0000000   0.0000000   0.0769905), wk =   0.0028490
        k(  163) = (   0.0000000   0.0000000   0.0839896), wk =   0.0028490
        k(  164) = (   0.0000000   0.0000000   0.0909887), wk =   0.0028490
        k(  165) = (   0.0000000   0.0000000   0.0979879), wk =   0.0028490
        k(  166) = (   0.0000000   0.0000000   0.1049870), wk =   0.0028490
        k(  167) = (   0.0000000   0.0000000   0.1119861), wk =   0.0028490
        k(  168) = (   0.0000000   0.0000000   0.1189853), wk =   0.0028490
        k(  169) = (   0.0000000   0.0000000   0.1259844), wk =   0.0028490
        k(  170) = (   0.0000000   0.0000000   0.1329835), wk =   0.0028490
        k(  171) = (   0.0000000   0.0000000   0.1399827), wk =   0.0028490
        k(  172) = (   0.0000000   0.0000000   0.1469818), wk =   0.0028490
        k(  173) = (   0.0000000   0.0000000   0.1539809), wk =   0.0028490
        k(  174) = (   0.0000000   0.0000000   0.1609801), wk =   0.0028490
        k(  175) = (   0.0000000   0.0000000   0.1679792), wk =   0.0028490
        k(  176) = (   0.0000000   0.0000000   0.1749783), wk =   0.0028490
        k(  177) = (   0.0000000   0.0000000   0.1819775), wk =   0.0028490
        k(  178) = (   0.0000000   0.0000000   0.1889766), wk =   0.0028490
        k(  179) = (   0.0000000   0.0000000   0.1959757), wk =   0.0028490
        k(  180) = (   0.0000000   0.0000000   0.2029749), wk =   0.0028490
        k(  181) = (   0.0000000   0.0000000   0.2099740), wk =   0.0028490
        k(  182) = (   0.0000000   0.0000000   0.2169731), wk =   0.0028490
        k(  183) = (   0.0000000   0.0000000   0.2239723), wk =   0.0028490
        k(  184) = (   0.0000000   0.0000000   0.2309714), wk =   0.0028490
        k(  185) = (   0.0000000   0.0000000   0.2379706), wk =   0.0028490
        k(  186) = (   0.0000000   0.0000000   0.2449697), wk =   0.0028490
        k(  187) = (   0.0000000   0.0000000   0.2519688), wk =   0.0028490
        k(  188) = (   0.0000000   0.0000000   0.2589680), wk =   0.0028490
        k(  189) = (   0.0000000   0.0000000   0.2659671), wk =   0.0028490
        k(  190) = (   0.0000000   0.0000000   0.2729662), wk =   0.0028490
        k(  191) = (   0.0000000   0.0000000   0.2799654), wk =   0.0028490
        k(  192) = (   0.0000000   0.0000000   0.2869645), wk =   0.0028490
        k(  193) = (   0.0000000   0.0000000   0.2939636), wk =   0.0028490
        k(  194) = (   0.0000000   0.0000000   0.3009628), wk =   0.0028490
        k(  195) = (   0.0000000   0.0000000   0.3079619), wk =   0.0028490
        k(  196) = (   0.0000000   0.0000000   0.3149610), wk =   0.0028490
        k(  197) = (   0.0000000   0.0000000   0.3219602), wk =   0.0028490
        k(  198) = (   0.0000000   0.0000000   0.3289593), wk =   0.0028490
        k(  199) = (   0.0000000   0.0000000   0.3359584), wk =   0.0028490
        k(  200) = (   0.0000000   0.0000000   0.3429576), wk =   0.0028490
        k(  201) = (   0.0000000   0.0000000   0.3499567), wk =   0.0028490
        k(  202) = (   0.0000000   0.0100000   0.3499567), wk =   0.0028490
        k(  203) = (   0.0000000   0.0200000   0.3499567), wk =   0.0028490
        k(  204) = (   0.0000000   0.0300000   0.3499567), wk =   0.0028490
        k(  205) = (   0.0000000   0.0400000   0.3499567), wk =   0.0028490
        k(  206) = (   0.0000000   0.0500000   0.3499567), wk =   0.0028490
        k(  207) = (   0.0000000   0.0600000   0.3499567), wk =   0.0028490
        k(  208) = (   0.0000000   0.0700000   0.3499567), wk =   0.0028490
        k(  209) = (   0.0000000   0.0800000   0.3499567), wk =   0.0028490
        k(  210) = (   0.0000000   0.0900000   0.3499567), wk =   0.0028490
        k(  211) = (   0.0000000   0.1000000   0.3499567), wk =   0.0028490
        k(  212) = (   0.0000000   0.1100000   0.3499567), wk =   0.0028490
        k(  213) = (   0.0000000   0.1200000   0.3499567), wk =   0.0028490
        k(  214) = (   0.0000000   0.1300000   0.3499567), wk =   0.0028490
        k(  215) = (   0.0000000   0.1400000   0.3499567), wk =   0.0028490
        k(  216) = (   0.0000000   0.1500000   0.3499567), wk =   0.0028490
        k(  217) = (   0.0000000   0.1600000   0.3499567), wk =   0.0028490
        k(  218) = (   0.0000000   0.1700000   0.3499567), wk =   0.0028490
        k(  219) = (   0.0000000   0.1800000   0.3499567), wk =   0.0028490
        k(  220) = (   0.0000000   0.1900000   0.3499567), wk =   0.0028490
        k(  221) = (   0.0000000   0.2000000   0.3499567), wk =   0.0028490
        k(  222) = (   0.0000000   0.2100000   0.3499567), wk =   0.0028490
        k(  223) = (   0.0000000   0.2200000   0.3499567), wk =   0.0028490
        k(  224) = (   0.0000000   0.2300000   0.3499567), wk =   0.0028490
        k(  225) = (   0.0000000   0.2400000   0.3499567), wk =   0.0028490
        k(  226) = (   0.0000000   0.2500000   0.3499567), wk =   0.0028490
        k(  227) = (   0.0000000   0.2600000   0.3499567), wk =   0.0028490
        k(  228) = (   0.0000000   0.2700000   0.3499567), wk =   0.0028490
        k(  229) = (   0.0000000   0.2800000   0.3499567), wk =   0.0028490
        k(  230) = (   0.0000000   0.2900000   0.3499567), wk =   0.0028490
        k(  231) = (   0.0000000   0.3000000   0.3499567), wk =   0.0028490
        k(  232) = (   0.0000000   0.3100000   0.3499567), wk =   0.0028490
        k(  233) = (   0.0000000   0.3200000   0.3499567), wk =   0.0028490
        k(  234) = (   0.0000000   0.3300000   0.3499567), wk =   0.0028490
        k(  235) = (   0.0000000   0.3400000   0.3499567), wk =   0.0028490
        k(  236) = (   0.0000000   0.3500000   0.3499567), wk =   0.0028490
        k(  237) = (   0.0000000   0.3600000   0.3499567), wk =   0.0028490
        k(  238) = (   0.0000000   0.3700000   0.3499567), wk =   0.0028490
        k(  239) = (   0.0000000   0.3800000   0.3499567), wk =   0.0028490
        k(  240) = (   0.0000000   0.3900000   0.3499567), wk =   0.0028490
        k(  241) = (   0.0000000   0.4000000   0.3499567), wk =   0.0028490
        k(  242) = (   0.0000000   0.4100000   0.3499567), wk =   0.0028490
        k(  243) = (   0.0000000   0.4200000   0.3499567), wk =   0.0028490
        k(  244) = (   0.0000000   0.4300000   0.3499567), wk =   0.0028490
        k(  245) = (   0.0000000   0.4400000   0.3499567), wk =   0.0028490
        k(  246) = (   0.0000000   0.4500000   0.3499567), wk =   0.0028490
        k(  247) = (   0.0000000   0.4600000   0.3499567), wk =   0.0028490
        k(  248) = (   0.0000000   0.4700000   0.3499567), wk =   0.0028490
        k(  249) = (   0.0000000   0.4800000   0.3499567), wk =   0.0028490
        k(  250) = (   0.0000000   0.4900000   0.3499567), wk =   0.0028490
        k(  251) = (   0.0000000   0.5000000   0.3499567), wk =   0.0028490
        k(  252) = (   0.0100000   0.5000000   0.3499567), wk =   0.0028490
        k(  253) = (   0.0200000   0.5000000   0.3499567), wk =   0.0028490
        k(  254) = (   0.0300000   0.5000000   0.3499567), wk =   0.0028490
        k(  255) = (   0.0400000   0.5000000   0.3499567), wk =   0.0028490
        k(  256) = (   0.0500000   0.5000000   0.3499567), wk =   0.0028490
        k(  257) = (   0.0600000   0.5000000   0.3499567), wk =   0.0028490
        k(  258) = (   0.0700000   0.5000000   0.3499567), wk =   0.0028490
        k(  259) = (   0.0800000   0.5000000   0.3499567), wk =   0.0028490
        k(  260) = (   0.0900000   0.5000000   0.3499567), wk =   0.0028490
        k(  261) = (   0.1000000   0.5000000   0.3499567), wk =   0.0028490
        k(  262) = (   0.1100000   0.5000000   0.3499567), wk =   0.0028490
        k(  263) = (   0.1200000   0.5000000   0.3499567), wk =   0.0028490
        k(  264) = (   0.1300000   0.5000000   0.3499567), wk =   0.0028490
        k(  265) = (   0.1400000   0.5000000   0.3499567), wk =   0.0028490
        k(  266) = (   0.1500000   0.5000000   0.3499567), wk =   0.0028490
        k(  267) = (   0.1600000   0.5000000   0.3499567), wk =   0.0028490
        k(  268) = (   0.1700000   0.5000000   0.3499567), wk =   0.0028490
        k(  269) = (   0.1800000   0.5000000   0.3499567), wk =   0.0028490
        k(  270) = (   0.1900000   0.5000000   0.3499567), wk =   0.0028490
        k(  271) = (   0.2000000   0.5000000   0.3499567), wk =   0.0028490
        k(  272) = (   0.2100000   0.5000000   0.3499567), wk =   0.0028490
        k(  273) = (   0.2200000   0.5000000   0.3499567), wk =   0.0028490
        k(  274) = (   0.2300000   0.5000000   0.3499567), wk =   0.0028490
        k(  275) = (   0.2400000   0.5000000   0.3499567), wk =   0.0028490
        k(  276) = (   0.2500000   0.5000000   0.3499567), wk =   0.0028490
        k(  277) = (   0.2600000   0.5000000   0.3499567), wk =   0.0028490
        k(  278) = (   0.2700000   0.5000000   0.3499567), wk =   0.0028490
        k(  279) = (   0.2800000   0.5000000   0.3499567), wk =   0.0028490
        k(  280) = (   0.2900000   0.5000000   0.3499567), wk =   0.0028490
        k(  281) = (   0.3000000   0.5000000   0.3499567), wk =   0.0028490
        k(  282) = (   0.3100000   0.5000000   0.3499567), wk =   0.0028490
        k(  283) = (   0.3200000   0.5000000   0.3499567), wk =   0.0028490
        k(  284) = (   0.3300000   0.5000000   0.3499567), wk =   0.0028490
        k(  285) = (   0.3400000   0.5000000   0.3499567), wk =   0.0028490
        k(  286) = (   0.3500000   0.5000000   0.3499567), wk =   0.0028490
        k(  287) = (   0.3600000   0.5000000   0.3499567), wk =   0.0028490
        k(  288) = (   0.3700000   0.5000000   0.3499567), wk =   0.0028490
        k(  289) = (   0.3800000   0.5000000   0.3499567), wk =   0.0028490
        k(  290) = (   0.3900000   0.5000000   0.3499567), wk =   0.0028490
        k(  291) = (   0.4000000   0.5000000   0.3499567), wk =   0.0028490
        k(  292) = (   0.4100000   0.5000000   0.3499567), wk =   0.0028490
        k(  293) = (   0.4200000   0.5000000   0.3499567), wk =   0.0028490
        k(  294) = (   0.4300000   0.5000000   0.3499567), wk =   0.0028490
        k(  295) = (   0.4400000   0.5000000   0.3499567), wk =   0.0028490
        k(  296) = (   0.4500000   0.5000000   0.3499567), wk =   0.0028490
        k(  297) = (   0.4600000   0.5000000   0.3499567), wk =   0.0028490
        k(  298) = (   0.4700000   0.5000000   0.3499567), wk =   0.0028490
        k(  299) = (   0.4800000   0.5000000   0.3499567), wk =   0.0028490
        k(  300) = (   0.4900000   0.5000000   0.3499567), wk =   0.0028490
        k(  301) = (   0.5000000   0.5000000   0.3499567), wk =   0.0028490
        k(  302) = (   0.4900000   0.4900000   0.3499567), wk =   0.0028490
        k(  303) = (   0.4800000   0.4800000   0.3499567), wk =   0.0028490
        k(  304) = (   0.4700000   0.4700000   0.3499567), wk =   0.0028490
        k(  305) = (   0.4600000   0.4600000   0.3499567), wk =   0.0028490
        k(  306) = (   0.4500000   0.4500000   0.3499567), wk =   0.0028490
        k(  307) = (   0.4400000   0.4400000   0.3499567), wk =   0.0028490
        k(  308) = (   0.4300000   0.4300000   0.3499567), wk =   0.0028490
        k(  309) = (   0.4200000   0.4200000   0.3499567), wk =   0.0028490
        k(  310) = (   0.4100000   0.4100000   0.3499567), wk =   0.0028490
        k(  311) = (   0.4000000   0.4000000   0.3499567), wk =   0.0028490
        k(  312) = (   0.3900000   0.3900000   0.3499567), wk =   0.0028490
        k(  313) = (   0.3800000   0.3800000   0.3499567), wk =   0.0028490
        k(  314) = (   0.3700000   0.3700000   0.3499567), wk =   0.0028490
        k(  315) = (   0.3600000   0.3600000   0.3499567), wk =   0.0028490
        k(  316) = (   0.3500000   0.3500000   0.3499567), wk =   0.0028490
        k(  317) = (   0.3400000   0.3400000   0.3499567), wk =   0.0028490
        k(  318) = (   0.3300000   0.3300000   0.3499567), wk =   0.0028490
        k(  319) = (   0.3200000   0.3200000   0.3499567), wk =   0.0028490
        k(  320) = (   0.3100000   0.3100000   0.3499567), wk =   0.0028490
        k(  321) = (   0.3000000   0.3000000   0.3499567), wk =   0.0028490
        k(  322) = (   0.2900000   0.2900000   0.3499567), wk =   0.0028490
        k(  323) = (   0.2800000   0.2800000   0.3499567), wk =   0.0028490
        k(  324) = (   0.2700000   0.2700000   0.3499567), wk =   0.0028490
        k(  325) = (   0.2600000   0.2600000   0.3499567), wk =   0.0028490
        k(  326) = (   0.2500000   0.2500000   0.3499567), wk =   0.0028490
        k(  327) = (   0.2400000   0.2400000   0.3499567), wk =   0.0028490
        k(  328) = (   0.2300000   0.2300000   0.3499567), wk =   0.0028490
        k(  329) = (   0.2200000   0.2200000   0.3499567), wk =   0.0028490
        k(  330) = (   0.2100000   0.2100000   0.3499567), wk =   0.0028490
        k(  331) = (   0.2000000   0.2000000   0.3499567), wk =   0.0028490
        k(  332) = (   0.1900000   0.1900000   0.3499567), wk =   0.0028490
        k(  333) = (   0.1800000   0.1800000   0.3499567), wk =   0.0028490
        k(  334) = (   0.1700000   0.1700000   0.3499567), wk =   0.0028490
        k(  335) = (   0.1600000   0.1600000   0.3499567), wk =   0.0028490
        k(  336) = (   0.1500000   0.1500000   0.3499567), wk =   0.0028490
        k(  337) = (   0.1400000   0.1400000   0.3499567), wk =   0.0028490
        k(  338) = (   0.1300000   0.1300000   0.3499567), wk =   0.0028490
        k(  339) = (   0.1200000   0.1200000   0.3499567), wk =   0.0028490
        k(  340) = (   0.1100000   0.1100000   0.3499567), wk =   0.0028490
        k(  341) = (   0.1000000   0.1000000   0.3499567), wk =   0.0028490
        k(  342) = (   0.0900000   0.0900000   0.3499567), wk =   0.0028490
        k(  343) = (   0.0800000   0.0800000   0.3499567), wk =   0.0028490
        k(  344) = (   0.0700000   0.0700000   0.3499567), wk =   0.0028490
        k(  345) = (   0.0600000   0.0600000   0.3499567), wk =   0.0028490
        k(  346) = (   0.0500000   0.0500000   0.3499567), wk =   0.0028490
        k(  347) = (   0.0400000   0.0400000   0.3499567), wk =   0.0028490
        k(  348) = (   0.0300000   0.0300000   0.3499567), wk =   0.0028490
        k(  349) = (   0.0200000   0.0200000   0.3499567), wk =   0.0028490
        k(  350) = (   0.0100000   0.0100000   0.3499567), wk =   0.0028490
        k(  351) = (   0.0000000   0.0000000   0.3499567), wk =   0.0028490

                       cryst. coord.
        k(    1) = (   0.0000000   0.0000000   0.0000000), wk =   0.0028490
        k(    2) = (   0.0000000   0.0100000   0.0000000), wk =   0.0028490
        k(    3) = (   0.0000000   0.0200000   0.0000000), wk =   0.0028490
        k(    4) = (   0.0000000   0.0300000   0.0000000), wk =   0.0028490
        k(    5) = (   0.0000000   0.0400000   0.0000000), wk =   0.0028490
        k(    6) = (   0.0000000   0.0500000   0.0000000), wk =   0.0028490
        k(    7) = (   0.0000000   0.0600000   0.0000000), wk =   0.0028490
        k(    8) = (   0.0000000   0.0700000   0.0000000), wk =   0.0028490
        k(    9) = (   0.0000000   0.0800000   0.0000000), wk =   0.0028490
        k(   10) = (   0.0000000   0.0900000   0.0000000), wk =   0.0028490
        k(   11) = (   0.0000000   0.1000000   0.0000000), wk =   0.0028490
        k(   12) = (   0.0000000   0.1100000   0.0000000), wk =   0.0028490
        k(   13) = (   0.0000000   0.1200000   0.0000000), wk =   0.0028490
        k(   14) = (   0.0000000   0.1300000   0.0000000), wk =   0.0028490
        k(   15) = (   0.0000000   0.1400000   0.0000000), wk =   0.0028490
        k(   16) = (   0.0000000   0.1500000   0.0000000), wk =   0.0028490
        k(   17) = (   0.0000000   0.1600000   0.0000000), wk =   0.0028490
        k(   18) = (   0.0000000   0.1700000   0.0000000), wk =   0.0028490
        k(   19) = (   0.0000000   0.1800000   0.0000000), wk =   0.0028490
        k(   20) = (   0.0000000   0.1900000   0.0000000), wk =   0.0028490
        k(   21) = (   0.0000000   0.2000000   0.0000000), wk =   0.0028490
        k(   22) = (   0.0000000   0.2100000   0.0000000), wk =   0.0028490
        k(   23) = (   0.0000000   0.2200000   0.0000000), wk =   0.0028490
        k(   24) = (   0.0000000   0.2300000   0.0000000), wk =   0.0028490
        k(   25) = (   0.0000000   0.2400000   0.0000000), wk =   0.0028490
        k(   26) = (   0.0000000   0.2500000   0.0000000), wk =   0.0028490
        k(   27) = (   0.0000000   0.2600000   0.0000000), wk =   0.0028490
        k(   28) = (   0.0000000   0.2700000   0.0000000), wk =   0.0028490
        k(   29) = (   0.0000000   0.2800000   0.0000000), wk =   0.0028490
        k(   30) = (   0.0000000   0.2900000   0.0000000), wk =   0.0028490
        k(   31) = (   0.0000000   0.3000000   0.0000000), wk =   0.0028490
        k(   32) = (   0.0000000   0.3100000   0.0000000), wk =   0.0028490
        k(   33) = (   0.0000000   0.3200000   0.0000000), wk =   0.0028490
        k(   34) = (   0.0000000   0.3300000   0.0000000), wk =   0.0028490
        k(   35) = (   0.0000000   0.3400000   0.0000000), wk =   0.0028490
        k(   36) = (   0.0000000   0.3500000   0.0000000), wk =   0.0028490
        k(   37) = (   0.0000000   0.3600000   0.0000000), wk =   0.0028490
        k(   38) = (   0.0000000   0.3700000   0.0000000), wk =   0.0028490
        k(   39) = (   0.0000000   0.3800000   0.0000000), wk =   0.0028490
        k(   40) = (   0.0000000   0.3900000   0.0000000), wk =   0.0028490
        k(   41) = (   0.0000000   0.4000000   0.0000000), wk =   0.0028490
        k(   42) = (   0.0000000   0.4100000   0.0000000), wk =   0.0028490
        k(   43) = (   0.0000000   0.4200000   0.0000000), wk =   0.0028490
        k(   44) = (   0.0000000   0.4300000   0.0000000), wk =   0.0028490
        k(   45) = (   0.0000000   0.4400000   0.0000000), wk =   0.0028490
        k(   46) = (   0.0000000   0.4500000   0.0000000), wk =   0.0028490
        k(   47) = (   0.0000000   0.4600000   0.0000000), wk =   0.0028490
        k(   48) = (   0.0000000   0.4700000   0.0000000), wk =   0.0028490
        k(   49) = (   0.0000000   0.4800000   0.0000000), wk =   0.0028490
        k(   50) = (   0.0000000   0.4900000   0.0000000), wk =   0.0028490
        k(   51) = (   0.0000000   0.5000000   0.0000000), wk =   0.0028490
        k(   52) = (   0.0100000   0.5000000   0.0000000), wk =   0.0028490
        k(   53) = (   0.0200000   0.5000000   0.0000000), wk =   0.0028490
        k(   54) = (   0.0300000   0.5000000   0.0000000), wk =   0.0028490
        k(   55) = (   0.0400000   0.5000000   0.0000000), wk =   0.0028490
        k(   56) = (   0.0500000   0.5000000   0.0000000), wk =   0.0028490
        k(   57) = (   0.0600000   0.5000000   0.0000000), wk =   0.0028490
        k(   58) = (   0.0700000   0.5000000   0.0000000), wk =   0.0028490
        k(   59) = (   0.0800000   0.5000000   0.0000000), wk =   0.0028490
        k(   60) = (   0.0900000   0.5000000   0.0000000), wk =   0.0028490
        k(   61) = (   0.1000000   0.5000000   0.0000000), wk =   0.0028490
        k(   62) = (   0.1100000   0.5000000   0.0000000), wk =   0.0028490
        k(   63) = (   0.1200000   0.5000000   0.0000000), wk =   0.0028490
        k(   64) = (   0.1300000   0.5000000   0.0000000), wk =   0.0028490
        k(   65) = (   0.1400000   0.5000000   0.0000000), wk =   0.0028490
        k(   66) = (   0.1500000   0.5000000   0.0000000), wk =   0.0028490
        k(   67) = (   0.1600000   0.5000000   0.0000000), wk =   0.0028490
        k(   68) = (   0.1700000   0.5000000   0.0000000), wk =   0.0028490
        k(   69) = (   0.1800000   0.5000000   0.0000000), wk =   0.0028490
        k(   70) = (   0.1900000   0.5000000   0.0000000), wk =   0.0028490
        k(   71) = (   0.2000000   0.5000000   0.0000000), wk =   0.0028490
        k(   72) = (   0.2100000   0.5000000   0.0000000), wk =   0.0028490
        k(   73) = (   0.2200000   0.5000000   0.0000000), wk =   0.0028490
        k(   74) = (   0.2300000   0.5000000   0.0000000), wk =   0.0028490
        k(   75) = (   0.2400000   0.5000000   0.0000000), wk =   0.0028490
        k(   76) = (   0.2500000   0.5000000   0.0000000), wk =   0.0028490
        k(   77) = (   0.2600000   0.5000000   0.0000000), wk =   0.0028490
        k(   78) = (   0.2700000   0.5000000   0.0000000), wk =   0.0028490
        k(   79) = (   0.2800000   0.5000000   0.0000000), wk =   0.0028490
        k(   80) = (   0.2900000   0.5000000   0.0000000), wk =   0.0028490
        k(   81) = (   0.3000000   0.5000000   0.0000000), wk =   0.0028490
        k(   82) = (   0.3100000   0.5000000   0.0000000), wk =   0.0028490
        k(   83) = (   0.3200000   0.5000000   0.0000000), wk =   0.0028490
        k(   84) = (   0.3300000   0.5000000   0.0000000), wk =   0.0028490
        k(   85) = (   0.3400000   0.5000000   0.0000000), wk =   0.0028490
        k(   86) = (   0.3500000   0.5000000   0.0000000), wk =   0.0028490
        k(   87) = (   0.3600000   0.5000000   0.0000000), wk =   0.0028490
        k(   88) = (   0.3700000   0.5000000   0.0000000), wk =   0.0028490
        k(   89) = (   0.3800000   0.5000000   0.0000000), wk =   0.0028490
        k(   90) = (   0.3900000   0.5000000   0.0000000), wk =   0.0028490
        k(   91) = (   0.4000000   0.5000000   0.0000000), wk =   0.0028490
        k(   92) = (   0.4100000   0.5000000   0.0000000), wk =   0.0028490
        k(   93) = (   0.4200000   0.5000000   0.0000000), wk =   0.0028490
        k(   94) = (   0.4300000   0.5000000   0.0000000), wk =   0.0028490
        k(   95) = (   0.4400000   0.5000000   0.0000000), wk =   0.0028490
        k(   96) = (   0.4500000   0.5000000   0.0000000), wk =   0.0028490
        k(   97) = (   0.4600000   0.5000000   0.0000000), wk =   0.0028490
        k(   98) = (   0.4700000   0.5000000   0.0000000), wk =   0.0028490
        k(   99) = (   0.4800000   0.5000000   0.0000000), wk =   0.0028490
        k(  100) = (   0.4900000   0.5000000   0.0000000), wk =   0.0028490
        k(  101) = (   0.5000000   0.5000000   0.0000000), wk =   0.0028490
        k(  102) = (   0.4900000   0.4900000   0.0000000), wk =   0.0028490
        k(  103) = (   0.4800000   0.4800000   0.0000000), wk =   0.0028490
        k(  104) = (   0.4700000   0.4700000   0.0000000), wk =   0.0028490
        k(  105) = (   0.4600000   0.4600000   0.0000000), wk =   0.0028490
        k(  106) = (   0.4500000   0.4500000   0.0000000), wk =   0.0028490
        k(  107) = (   0.4400000   0.4400000   0.0000000), wk =   0.0028490
        k(  108) = (   0.4300000   0.4300000   0.0000000), wk =   0.0028490
        k(  109) = (   0.4200000   0.4200000   0.0000000), wk =   0.0028490
        k(  110) = (   0.4100000   0.4100000   0.0000000), wk =   0.0028490
        k(  111) = (   0.4000000   0.4000000   0.0000000), wk =   0.0028490
        k(  112) = (   0.3900000   0.3900000   0.0000000), wk =   0.0028490
        k(  113) = (   0.3800000   0.3800000   0.0000000), wk =   0.0028490
        k(  114) = (   0.3700000   0.3700000   0.0000000), wk =   0.0028490
        k(  115) = (   0.3600000   0.3600000   0.0000000), wk =   0.0028490
        k(  116) = (   0.3500000   0.3500000   0.0000000), wk =   0.0028490
        k(  117) = (   0.3400000   0.3400000   0.0000000), wk =   0.0028490
        k(  118) = (   0.3300000   0.3300000   0.0000000), wk =   0.0028490
        k(  119) = (   0.3200000   0.3200000   0.0000000), wk =   0.0028490
        k(  120) = (   0.3100000   0.3100000   0.0000000), wk =   0.0028490
        k(  121) = (   0.3000000   0.3000000   0.0000000), wk =   0.0028490
        k(  122) = (   0.2900000   0.2900000   0.0000000), wk =   0.0028490
        k(  123) = (   0.2800000   0.2800000   0.0000000), wk =   0.0028490
        k(  124) = (   0.2700000   0.2700000   0.0000000), wk =   0.0028490
        k(  125) = (   0.2600000   0.2600000   0.0000000), wk =   0.0028490
        k(  126) = (   0.2500000   0.2500000   0.0000000), wk =   0.0028490
        k(  127) = (   0.2400000   0.2400000   0.0000000), wk =   0.0028490
        k(  128) = (   0.2300000   0.2300000   0.0000000), wk =   0.0028490
        k(  129) = (   0.2200000   0.2200000   0.0000000), wk =   0.0028490
        k(  130) = (   0.2100000   0.2100000   0.0000000), wk =   0.0028490
        k(  131) = (   0.2000000   0.2000000   0.0000000), wk =   0.0028490
        k(  132) = (   0.1900000   0.1900000   0.0000000), wk =   0.0028490
        k(  133) = (   0.1800000   0.1800000   0.0000000), wk =   0.0028490
        k(  134) = (   0.1700000   0.1700000   0.0000000), wk =   0.0028490
        k(  135) = (   0.1600000   0.1600000   0.0000000), wk =   0.0028490
        k(  136) = (   0.1500000   0.1500000   0.0000000), wk =   0.0028490
        k(  137) = (   0.1400000   0.1400000   0.0000000), wk =   0.0028490
        k(  138) = (   0.1300000   0.1300000   0.0000000), wk =   0.0028490
        k(  139) = (   0.1200000   0.1200000   0.0000000), wk =   0.0028490
        k(  140) = (   0.1100000   0.1100000   0.0000000), wk =   0.0028490
        k(  141) = (   0.1000000   0.1000000   0.0000000), wk =   0.0028490
        k(  142) = (   0.0900000   0.0900000   0.0000000), wk =   0.0028490
        k(  143) = (   0.0800000   0.0800000   0.0000000), wk =   0.0028490
        k(  144) = (   0.0700000   0.0700000   0.0000000), wk =   0.0028490
        k(  145) = (   0.0600000   0.0600000   0.0000000), wk =   0.0028490
        k(  146) = (   0.0500000   0.0500000   0.0000000), wk =   0.0028490
        k(  147) = (   0.0400000   0.0400000   0.0000000), wk =   0.0028490
        k(  148) = (   0.0300000   0.0300000   0.0000000), wk =   0.0028490
        k(  149) = (   0.0200000   0.0200000   0.0000000), wk =   0.0028490
        k(  150) = (   0.0100000   0.0100000   0.0000000), wk =   0.0028490
        k(  151) = (   0.0000000   0.0000000   0.0000000), wk =   0.0028490
        k(  152) = (   0.0000000   0.0000000   0.0100000), wk =   0.0028490
        k(  153) = (   0.0000000   0.0000000   0.0200000), wk =   0.0028490
        k(  154) = (   0.0000000   0.0000000   0.0300000), wk =   0.0028490
        k(  155) = (   0.0000000   0.0000000   0.0400000), wk =   0.0028490
        k(  156) = (   0.0000000   0.0000000   0.0500000), wk =   0.0028490
        k(  157) = (   0.0000000   0.0000000   0.0600000), wk =   0.0028490
        k(  158) = (   0.0000000   0.0000000   0.0700000), wk =   0.0028490
        k(  159) = (   0.0000000   0.0000000   0.0800000), wk =   0.0028490
        k(  160) = (   0.0000000   0.0000000   0.0900000), wk =   0.0028490
        k(  161) = (   0.0000000   0.0000000   0.1000000), wk =   0.0028490
        k(  162) = (   0.0000000   0.0000000   0.1100000), wk =   0.0028490
        k(  163) = (   0.0000000   0.0000000   0.1200000), wk =   0.0028490
        k(  164) = (   0.0000000   0.0000000   0.1300000), wk =   0.0028490
        k(  165) = (   0.0000000   0.0000000   0.1400000), wk =   0.0028490
        k(  166) = (   0.0000000   0.0000000   0.1500000), wk =   0.0028490
        k(  167) = (   0.0000000   0.0000000   0.1600000), wk =   0.0028490
        k(  168) = (   0.0000000   0.0000000   0.1700000), wk =   0.0028490
        k(  169) = (   0.0000000   0.0000000   0.1800000), wk =   0.0028490
        k(  170) = (   0.0000000   0.0000000   0.1900000), wk =   0.0028490
        k(  171) = (   0.0000000   0.0000000   0.2000000), wk =   0.0028490
        k(  172) = (   0.0000000   0.0000000   0.2100000), wk =   0.0028490
        k(  173) = (   0.0000000   0.0000000   0.2200000), wk =   0.0028490
        k(  174) = (   0.0000000   0.0000000   0.2300000), wk =   0.0028490
        k(  175) = (   0.0000000   0.0000000   0.2400000), wk =   0.0028490
        k(  176) = (   0.0000000   0.0000000   0.2500000), wk =   0.0028490
        k(  177) = (   0.0000000   0.0000000   0.2600000), wk =   0.0028490
        k(  178) = (   0.0000000   0.0000000   0.2700000), wk =   0.0028490
        k(  179) = (   0.0000000   0.0000000   0.2800000), wk =   0.0028490
        k(  180) = (   0.0000000   0.0000000   0.2900000), wk =   0.0028490
        k(  181) = (   0.0000000   0.0000000   0.3000000), wk =   0.0028490
        k(  182) = (   0.0000000   0.0000000   0.3100000), wk =   0.0028490
        k(  183) = (   0.0000000   0.0000000   0.3200000), wk =   0.0028490
        k(  184) = (   0.0000000   0.0000000   0.3300000), wk =   0.0028490
        k(  185) = (   0.0000000   0.0000000   0.3400000), wk =   0.0028490
        k(  186) = (   0.0000000   0.0000000   0.3500000), wk =   0.0028490
        k(  187) = (   0.0000000   0.0000000   0.3600000), wk =   0.0028490
        k(  188) = (   0.0000000   0.0000000   0.3700000), wk =   0.0028490
        k(  189) = (   0.0000000   0.0000000   0.3800000), wk =   0.0028490
        k(  190) = (   0.0000000   0.0000000   0.3900000), wk =   0.0028490
        k(  191) = (   0.0000000   0.0000000   0.4000000), wk =   0.0028490
        k(  192) = (   0.0000000   0.0000000   0.4100000), wk =   0.0028490
        k(  193) = (   0.0000000   0.0000000   0.4200000), wk =   0.0028490
        k(  194) = (   0.0000000   0.0000000   0.4300000), wk =   0.0028490
        k(  195) = (   0.0000000   0.0000000   0.4400000), wk =   0.0028490
        k(  196) = (   0.0000000   0.0000000   0.4500000), wk =   0.0028490
        k(  197) = (   0.0000000   0.0000000   0.4600000), wk =   0.0028490
        k(  198) = (   0.0000000   0.0000000   0.4700000), wk =   0.0028490
        k(  199) = (   0.0000000   0.0000000   0.4800000), wk =   0.0028490
        k(  200) = (   0.0000000   0.0000000   0.4900000), wk =   0.0028490
        k(  201) = (   0.0000000   0.0000000   0.5000000), wk =   0.0028490
        k(  202) = (   0.0000000   0.0100000   0.5000000), wk =   0.0028490
        k(  203) = (   0.0000000   0.0200000   0.5000000), wk =   0.0028490
        k(  204) = (   0.0000000   0.0300000   0.5000000), wk =   0.0028490
        k(  205) = (   0.0000000   0.0400000   0.5000000), wk =   0.0028490
        k(  206) = (   0.0000000   0.0500000   0.5000000), wk =   0.0028490
        k(  207) = (   0.0000000   0.0600000   0.5000000), wk =   0.0028490
        k(  208) = (   0.0000000   0.0700000   0.5000000), wk =   0.0028490
        k(  209) = (   0.0000000   0.0800000   0.5000000), wk =   0.0028490
        k(  210) = (   0.0000000   0.0900000   0.5000000), wk =   0.0028490
        k(  211) = (   0.0000000   0.1000000   0.5000000), wk =   0.0028490
        k(  212) = (   0.0000000   0.1100000   0.5000000), wk =   0.0028490
        k(  213) = (   0.0000000   0.1200000   0.5000000), wk =   0.0028490
        k(  214) = (   0.0000000   0.1300000   0.5000000), wk =   0.0028490
        k(  215) = (   0.0000000   0.1400000   0.5000000), wk =   0.0028490
        k(  216) = (   0.0000000   0.1500000   0.5000000), wk =   0.0028490
        k(  217) = (   0.0000000   0.1600000   0.5000000), wk =   0.0028490
        k(  218) = (   0.0000000   0.1700000   0.5000000), wk =   0.0028490
        k(  219) = (   0.0000000   0.1800000   0.5000000), wk =   0.0028490
        k(  220) = (   0.0000000   0.1900000   0.5000000), wk =   0.0028490
        k(  221) = (   0.0000000   0.2000000   0.5000000), wk =   0.0028490
        k(  222) = (   0.0000000   0.2100000   0.5000000), wk =   0.0028490
        k(  223) = (   0.0000000   0.2200000   0.5000000), wk =   0.0028490
        k(  224) = (   0.0000000   0.2300000   0.5000000), wk =   0.0028490
        k(  225) = (   0.0000000   0.2400000   0.5000000), wk =   0.0028490
        k(  226) = (   0.0000000   0.2500000   0.5000000), wk =   0.0028490
        k(  227) = (   0.0000000   0.2600000   0.5000000), wk =   0.0028490
        k(  228) = (   0.0000000   0.2700000   0.5000000), wk =   0.0028490
        k(  229) = (   0.0000000   0.2800000   0.5000000), wk =   0.0028490
        k(  230) = (   0.0000000   0.2900000   0.5000000), wk =   0.0028490
        k(  231) = (   0.0000000   0.3000000   0.5000000), wk =   0.0028490
        k(  232) = (   0.0000000   0.3100000   0.5000000), wk =   0.0028490
        k(  233) = (   0.0000000   0.3200000   0.5000000), wk =   0.0028490
        k(  234) = (   0.0000000   0.3300000   0.5000000), wk =   0.0028490
        k(  235) = (   0.0000000   0.3400000   0.5000000), wk =   0.0028490
        k(  236) = (   0.0000000   0.3500000   0.5000000), wk =   0.0028490
        k(  237) = (   0.0000000   0.3600000   0.5000000), wk =   0.0028490
        k(  238) = (   0.0000000   0.3700000   0.5000000), wk =   0.0028490
        k(  239) = (   0.0000000   0.3800000   0.5000000), wk =   0.0028490
        k(  240) = (   0.0000000   0.3900000   0.5000000), wk =   0.0028490
        k(  241) = (   0.0000000   0.4000000   0.5000000), wk =   0.0028490
        k(  242) = (   0.0000000   0.4100000   0.5000000), wk =   0.0028490
        k(  243) = (   0.0000000   0.4200000   0.5000000), wk =   0.0028490
        k(  244) = (   0.0000000   0.4300000   0.5000000), wk =   0.0028490
        k(  245) = (   0.0000000   0.4400000   0.5000000), wk =   0.0028490
        k(  246) = (   0.0000000   0.4500000   0.5000000), wk =   0.0028490
        k(  247) = (   0.0000000   0.4600000   0.5000000), wk =   0.0028490
        k(  248) = (   0.0000000   0.4700000   0.5000000), wk =   0.0028490
        k(  249) = (   0.0000000   0.4800000   0.5000000), wk =   0.0028490
        k(  250) = (   0.0000000   0.4900000   0.5000000), wk =   0.0028490
        k(  251) = (   0.0000000   0.5000000   0.5000000), wk =   0.0028490
        k(  252) = (   0.0100000   0.5000000   0.5000000), wk =   0.0028490
        k(  253) = (   0.0200000   0.5000000   0.5000000), wk =   0.0028490
        k(  254) = (   0.0300000   0.5000000   0.5000000), wk =   0.0028490
        k(  255) = (   0.0400000   0.5000000   0.5000000), wk =   0.0028490
        k(  256) = (   0.0500000   0.5000000   0.5000000), wk =   0.0028490
        k(  257) = (   0.0600000   0.5000000   0.5000000), wk =   0.0028490
        k(  258) = (   0.0700000   0.5000000   0.5000000), wk =   0.0028490
        k(  259) = (   0.0800000   0.5000000   0.5000000), wk =   0.0028490
        k(  260) = (   0.0900000   0.5000000   0.5000000), wk =   0.0028490
        k(  261) = (   0.1000000   0.5000000   0.5000000), wk =   0.0028490
        k(  262) = (   0.1100000   0.5000000   0.5000000), wk =   0.0028490
        k(  263) = (   0.1200000   0.5000000   0.5000000), wk =   0.0028490
        k(  264) = (   0.1300000   0.5000000   0.5000000), wk =   0.0028490
        k(  265) = (   0.1400000   0.5000000   0.5000000), wk =   0.0028490
        k(  266) = (   0.1500000   0.5000000   0.5000000), wk =   0.0028490
        k(  267) = (   0.1600000   0.5000000   0.5000000), wk =   0.0028490
        k(  268) = (   0.1700000   0.5000000   0.5000000), wk =   0.0028490
        k(  269) = (   0.1800000   0.5000000   0.5000000), wk =   0.0028490
        k(  270) = (   0.1900000   0.5000000   0.5000000), wk =   0.0028490
        k(  271) = (   0.2000000   0.5000000   0.5000000), wk =   0.0028490
        k(  272) = (   0.2100000   0.5000000   0.5000000), wk =   0.0028490
        k(  273) = (   0.2200000   0.5000000   0.5000000), wk =   0.0028490
        k(  274) = (   0.2300000   0.5000000   0.5000000), wk =   0.0028490
        k(  275) = (   0.2400000   0.5000000   0.5000000), wk =   0.0028490
        k(  276) = (   0.2500000   0.5000000   0.5000000), wk =   0.0028490
        k(  277) = (   0.2600000   0.5000000   0.5000000), wk =   0.0028490
        k(  278) = (   0.2700000   0.5000000   0.5000000), wk =   0.0028490
        k(  279) = (   0.2800000   0.5000000   0.5000000), wk =   0.0028490
        k(  280) = (   0.2900000   0.5000000   0.5000000), wk =   0.0028490
        k(  281) = (   0.3000000   0.5000000   0.5000000), wk =   0.0028490
        k(  282) = (   0.3100000   0.5000000   0.5000000), wk =   0.0028490
        k(  283) = (   0.3200000   0.5000000   0.5000000), wk =   0.0028490
        k(  284) = (   0.3300000   0.5000000   0.5000000), wk =   0.0028490
        k(  285) = (   0.3400000   0.5000000   0.5000000), wk =   0.0028490
        k(  286) = (   0.3500000   0.5000000   0.5000000), wk =   0.0028490
        k(  287) = (   0.3600000   0.5000000   0.5000000), wk =   0.0028490
        k(  288) = (   0.3700000   0.5000000   0.5000000), wk =   0.0028490
        k(  289) = (   0.3800000   0.5000000   0.5000000), wk =   0.0028490
        k(  290) = (   0.3900000   0.5000000   0.5000000), wk =   0.0028490
        k(  291) = (   0.4000000   0.5000000   0.5000000), wk =   0.0028490
        k(  292) = (   0.4100000   0.5000000   0.5000000), wk =   0.0028490
        k(  293) = (   0.4200000   0.5000000   0.5000000), wk =   0.0028490
        k(  294) = (   0.4300000   0.5000000   0.5000000), wk =   0.0028490
        k(  295) = (   0.4400000   0.5000000   0.5000000), wk =   0.0028490
        k(  296) = (   0.4500000   0.5000000   0.5000000), wk =   0.0028490
        k(  297) = (   0.4600000   0.5000000   0.5000000), wk =   0.0028490
        k(  298) = (   0.4700000   0.5000000   0.5000000), wk =   0.0028490
        k(  299) = (   0.4800000   0.5000000   0.5000000), wk =   0.0028490
        k(  300) = (   0.4900000   0.5000000   0.5000000), wk =   0.0028490
        k(  301) = (   0.5000000   0.5000000   0.5000000), wk =   0.0028490
        k(  302) = (   0.4900000   0.4900000   0.5000000), wk =   0.0028490
        k(  303) = (   0.4800000   0.4800000   0.5000000), wk =   0.0028490
        k(  304) = (   0.4700000   0.4700000   0.5000000), wk =   0.0028490
        k(  305) = (   0.4600000   0.4600000   0.5000000), wk =   0.0028490
        k(  306) = (   0.4500000   0.4500000   0.5000000), wk =   0.0028490
        k(  307) = (   0.4400000   0.4400000   0.5000000), wk =   0.0028490
        k(  308) = (   0.4300000   0.4300000   0.5000000), wk =   0.0028490
        k(  309) = (   0.4200000   0.4200000   0.5000000), wk =   0.0028490
        k(  310) = (   0.4100000   0.4100000   0.5000000), wk =   0.0028490
        k(  311) = (   0.4000000   0.4000000   0.5000000), wk =   0.0028490
        k(  312) = (   0.3900000   0.3900000   0.5000000), wk =   0.0028490
        k(  313) = (   0.3800000   0.3800000   0.5000000), wk =   0.0028490
        k(  314) = (   0.3700000   0.3700000   0.5000000), wk =   0.0028490
        k(  315) = (   0.3600000   0.3600000   0.5000000), wk =   0.0028490
        k(  316) = (   0.3500000   0.3500000   0.5000000), wk =   0.0028490
        k(  317) = (   0.3400000   0.3400000   0.5000000), wk =   0.0028490
        k(  318) = (   0.3300000   0.3300000   0.5000000), wk =   0.0028490
        k(  319) = (   0.3200000   0.3200000   0.5000000), wk =   0.0028490
        k(  320) = (   0.3100000   0.3100000   0.5000000), wk =   0.0028490
        k(  321) = (   0.3000000   0.3000000   0.5000000), wk =   0.0028490
        k(  322) = (   0.2900000   0.2900000   0.5000000), wk =   0.0028490
        k(  323) = (   0.2800000   0.2800000   0.5000000), wk =   0.0028490
        k(  324) = (   0.2700000   0.2700000   0.5000000), wk =   0.0028490
        k(  325) = (   0.2600000   0.2600000   0.5000000), wk =   0.0028490
        k(  326) = (   0.2500000   0.2500000   0.5000000), wk =   0.0028490
        k(  327) = (   0.2400000   0.2400000   0.5000000), wk =   0.0028490
        k(  328) = (   0.2300000   0.2300000   0.5000000), wk =   0.0028490
        k(  329) = (   0.2200000   0.2200000   0.5000000), wk =   0.0028490
        k(  330) = (   0.2100000   0.2100000   0.5000000), wk =   0.0028490
        k(  331) = (   0.2000000   0.2000000   0.5000000), wk =   0.0028490
        k(  332) = (   0.1900000   0.1900000   0.5000000), wk =   0.0028490
        k(  333) = (   0.1800000   0.1800000   0.5000000), wk =   0.0028490
        k(  334) = (   0.1700000   0.1700000   0.5000000), wk =   0.0028490
        k(  335) = (   0.1600000   0.1600000   0.5000000), wk =   0.0028490
        k(  336) = (   0.1500000   0.1500000   0.5000000), wk =   0.0028490
        k(  337) = (   0.1400000   0.1400000   0.5000000), wk =   0.0028490
        k(  338) = (   0.1300000   0.1300000   0.5000000), wk =   0.0028490
        k(  339) = (   0.1200000   0.1200000   0.5000000), wk =   0.0028490
        k(  340) = (   0.1100000   0.1100000   0.5000000), wk =   0.0028490
        k(  341) = (   0.1000000   0.1000000   0.5000000), wk =   0.0028490
        k(  342) = (   0.0900000   0.0900000   0.5000000), wk =   0.0028490
        k(  343) = (   0.0800000   0.0800000   0.5000000), wk =   0.0028490
        k(  344) = (   0.0700000   0.0700000   0.5000000), wk =   0.0028490
        k(  345) = (   0.0600000   0.0600000   0.5000000), wk =   0.0028490
        k(  346) = (   0.0500000   0.0500000   0.5000000), wk =   0.0028490
        k(  347) = (   0.0400000   0.0400000   0.5000000), wk =   0.0028490
        k(  348) = (   0.0300000   0.0300000   0.5000000), wk =   0.0028490
        k(  349) = (   0.0200000   0.0200000   0.5000000), wk =   0.0028490
        k(  350) = (   0.0100000   0.0100000   0.5000000), wk =   0.0028490
        k(  351) = (   0.0000000   0.0000000   0.5000000), wk =   0.0028490

     Dense  grid:    55993 G-vectors     FFT dimensions: (  45,  45,  64)

     Smooth grid:    10451 G-vectors     FFT dimensions: (  25,  25,  36)

     Dynamical RAM for                 wfc:       0.10 MB

     Dynamical RAM for     wfc (w. buffer):      36.76 MB

     Dynamical RAM for           str. fact:       0.08 MB

     Dynamical RAM for           local pot:       0.00 MB

     Dynamical RAM for          nlocal pot:       0.06 MB

     Dynamical RAM for                qrad:      11.75 MB

     Dynamical RAM for          rho,v,vnew:       1.02 MB

     Dynamical RAM for           G-vectors:       0.15 MB

     Dynamical RAM for          h,s,v(r/c):       0.62 MB

     Dynamical RAM for          <psi|beta>:       0.12 MB

     Dynamical RAM for                 psi:       0.21 MB

     Dynamical RAM for                hpsi:       0.21 MB

     Dynamical RAM for                spsi:       0.21 MB

     Dynamical RAM for      wfcinit/wfcrot:       0.23 MB

     Dynamical RAM for           addusdens:      23.84 MB

     Estimated static dynamical RAM per process >      50.31 MB

     Estimated max dynamical RAM per process >      74.15 MB

     Estimated total dynamical RAM >       1.59 GB

     Check: negative core charge=   -0.000008
     Generating pointlists ...
     new r_m :   0.4125 (alat units)  1.9539 (a.u.) for type    1
     new r_m :   0.4125 (alat units)  1.9539 (a.u.) for type    2
     Message from routine read_rhog:
     some spin components not found
 
 -----------
Spin angles Theta, Phi (degree) =  90.0000  0.0000
 -----------

     The potential is recalculated from file :
     ./work/pwscf.save/charge-density

     Starting wfcs are   44 randomized atomic wfcs +   14 random wfcs

     Band Structure Calculation
     Davidson diagonalization with overlap

     Computing kpt #:     1  of   351
     total cpu time spent up to now is        1.8 secs

     Computing kpt #:     2  of   351
     total cpu time spent up to now is        2.8 secs

     Computing kpt #:     3  of   351
     total cpu time spent up to now is        4.2 secs

     Computing kpt #:     4  of   351
     total cpu time spent up to now is        5.4 secs

     Computing kpt #:     5  of   351
     total cpu time spent up to now is        6.6 secs

     Computing kpt #:     6  of   351
     total cpu time spent up to now is        8.1 secs

     Computing kpt #:     7  of   351
     total cpu time spent up to now is        9.4 secs

     Computing kpt #:     8  of   351
     total cpu time spent up to now is       10.8 secs

     Computing kpt #:     9  of   351
     total cpu time spent up to now is       12.1 secs

     Computing kpt #:    10  of   351
     total cpu time spent up to now is       13.7 secs

     Computing kpt #:    11  of   351
     total cpu time spent up to now is       15.3 secs

     Computing kpt #:    12  of   351
     total cpu time spent up to now is       16.7 secs

     Computing kpt #:    13  of   351
     total cpu time spent up to now is       18.3 secs

     Computing kpt #:    14  of   351
     total cpu time spent up to now is       20.1 secs

     Computing kpt #:    15  of   351
     total cpu time spent up to now is       21.6 secs

     Computing kpt #:    16  of   351
     total cpu time spent up to now is       23.0 secs

     Computing kpt #:    17  of   351
     total cpu time spent up to now is       24.4 secs

     Computing kpt #:    18  of   351
     total cpu time spent up to now is       25.7 secs

     Computing kpt #:    19  of   351
     total cpu time spent up to now is       27.4 secs

     Computing kpt #:    20  of   351
     total cpu time spent up to now is       28.7 secs

     Computing kpt #:    21  of   351
     total cpu time spent up to now is       30.1 secs

     Computing kpt #:    22  of   351
     total cpu time spent up to now is       31.7 secs

     Computing kpt #:    23  of   351
     total cpu time spent up to now is       33.2 secs

     Computing kpt #:    24  of   351
     total cpu time spent up to now is       34.7 secs

     Computing kpt #:    25  of   351
     total cpu time spent up to now is       36.4 secs

     Computing kpt #:    26  of   351
     total cpu time spent up to now is       37.9 secs

     Computing kpt #:    27  of   351
     c_bands:  1 eigenvalues not converged
     total cpu time spent up to now is       40.3 secs

     Computing kpt #:    28  of   351
     total cpu time spent up to now is       42.6 secs

     Computing kpt #:    29  of   351
     total cpu time spent up to now is       44.3 secs

     Computing kpt #:    30  of   351
     total cpu time spent up to now is       46.1 secs

     Computing kpt #:    31  of   351
     total cpu time spent up to now is       47.7 secs

     Computing kpt #:    32  of   351
     total cpu time spent up to now is       49.1 secs

     Computing kpt #:    33  of   351
     total cpu time spent up to now is       50.9 secs

     Computing kpt #:    34  of   351
     total cpu time spent up to now is       52.6 secs

     Computing kpt #:    35  of   351
     total cpu time spent up to now is       54.2 secs

     Computing kpt #:    36  of   351
     total cpu time spent up to now is       55.6 secs

     Computing kpt #:    37  of   351
     total cpu time spent up to now is       57.0 secs

     Computing kpt #:    38  of   351
     total cpu time spent up to now is       58.2 secs

     Computing kpt #:    39  of   351
     total cpu time spent up to now is       59.5 secs

     Computing kpt #:    40  of   351
     total cpu time spent up to now is       61.0 secs

     Computing kpt #:    41  of   351
     total cpu time spent up to now is       62.3 secs

     Computing kpt #:    42  of   351
     total cpu time spent up to now is       63.9 secs

     Computing kpt #:    43  of   351
     total cpu time spent up to now is       65.3 secs

     Computing kpt #:    44  of   351
     total cpu time spent up to now is       66.6 secs

     Computing kpt #:    45  of   351
     total cpu time spent up to now is       68.1 secs

     Computing kpt #:    46  of   351
     total cpu time spent up to now is       69.3 secs

     Computing kpt #:    47  of   351
     total cpu time spent up to now is       70.8 secs

     Computing kpt #:    48  of   351
     total cpu time spent up to now is       72.3 secs

     Computing kpt #:    49  of   351
     total cpu time spent up to now is       73.9 secs

     Computing kpt #:    50  of   351
     total cpu time spent up to now is       75.8 secs

     Computing kpt #:    51  of   351
     total cpu time spent up to now is       77.5 secs

     Computing kpt #:    52  of   351
     total cpu time spent up to now is       79.2 secs

     Computing kpt #:    53  of   351
     total cpu time spent up to now is       80.9 secs

     Computing kpt #:    54  of   351
     total cpu time spent up to now is       82.6 secs

     Computing kpt #:    55  of   351
     total cpu time spent up to now is       84.2 secs

     Computing kpt #:    56  of   351
     total cpu time spent up to now is       85.7 secs

     Computing kpt #:    57  of   351
     total cpu time spent up to now is       87.1 secs

     Computing kpt #:    58  of   351
     total cpu time spent up to now is       88.4 secs

     Computing kpt #:    59  of   351
     total cpu time spent up to now is       89.8 secs

     Computing kpt #:    60  of   351
     total cpu time spent up to now is       91.0 secs

     Computing kpt #:    61  of   351
     total cpu time spent up to now is       92.2 secs

     Computing kpt #:    62  of   351
     total cpu time spent up to now is       93.4 secs

     Computing kpt #:    63  of   351
     total cpu time spent up to now is       94.8 secs

     Computing kpt #:    64  of   351
     total cpu time spent up to now is       96.2 secs

     Computing kpt #:    65  of   351
     total cpu time spent up to now is       97.4 secs

     Computing kpt #:    66  of   351
     total cpu time spent up to now is       98.8 secs

     Computing kpt #:    67  of   351
     total cpu time spent up to now is      100.2 secs

     Computing kpt #:    68  of   351
     total cpu time spent up to now is      101.7 secs

     Computing kpt #:    69  of   351
     total cpu time spent up to now is      103.4 secs

     Computing kpt #:    70  of   351
     total cpu time spent up to now is      104.7 secs

     Computing kpt #:    71  of   351
     total cpu time spent up to now is      106.2 secs

     Computing kpt #:    72  of   351
     total cpu time spent up to now is      107.9 secs

     Computing kpt #:    73  of   351
     total cpu time spent up to now is      109.3 secs

     Computing kpt #:    74  of   351
     total cpu time spent up to now is      111.0 secs

     Computing kpt #:    75  of   351
     total cpu time spent up to now is      112.4 secs

     Computing kpt #:    76  of   351
     total cpu time spent up to now is      113.8 secs

     Computing kpt #:    77  of   351
     total cpu time spent up to now is      115.3 secs

     Computing kpt #:    78  of   351
     total cpu time spent up to now is      116.9 secs

     Computing kpt #:    79  of   351
     total cpu time spent up to now is      118.3 secs

     Computing kpt #:    80  of   351
     total cpu time spent up to now is      119.5 secs

     Computing kpt #:    81  of   351
     total cpu time spent up to now is      121.3 secs

     Computing kpt #:    82  of   351
     total cpu time spent up to now is      123.5 secs

     Computing kpt #:    83  of   351
     total cpu time spent up to now is      125.4 secs

     Computing kpt #:    84  of   351
     total cpu time spent up to now is      127.2 secs

     Computing kpt #:    85  of   351
     total cpu time spent up to now is      128.8 secs

     Computing kpt #:    86  of   351
     total cpu time spent up to now is      130.5 secs

     Computing kpt #:    87  of   351
     total cpu time spent up to now is      132.3 secs

     Computing kpt #:    88  of   351
     total cpu time spent up to now is      133.8 secs

     Computing kpt #:    89  of   351
     total cpu time spent up to now is      135.6 secs

     Computing kpt #:    90  of   351
     total cpu time spent up to now is      137.1 secs

     Computing kpt #:    91  of   351
     total cpu time spent up to now is      138.8 secs

     Computing kpt #:    92  of   351
     total cpu time spent up to now is      140.2 secs

     Computing kpt #:    93  of   351
     total cpu time spent up to now is      141.8 secs

     Computing kpt #:    94  of   351
     total cpu time spent up to now is      143.4 secs

     Computing kpt #:    95  of   351
     total cpu time spent up to now is      145.2 secs

     Computing kpt #:    96  of   351
     total cpu time spent up to now is      146.8 secs

     Computing kpt #:    97  of   351
     total cpu time spent up to now is      148.4 secs

     Computing kpt #:    98  of   351
     total cpu time spent up to now is      150.1 secs

     Computing kpt #:    99  of   351
     total cpu time spent up to now is      151.9 secs

     Computing kpt #:   100  of   351
     total cpu time spent up to now is      153.6 secs

     Computing kpt #:   101  of   351
     total cpu time spent up to now is      155.1 secs

     Computing kpt #:   102  of   351
     total cpu time spent up to now is      156.7 secs

     Computing kpt #:   103  of   351
     total cpu time spent up to now is      158.1 secs

     Computing kpt #:   104  of   351
     total cpu time spent up to now is      159.6 secs

     Computing kpt #:   105  of   351
     total cpu time spent up to now is      161.3 secs

     Computing kpt #:   106  of   351
     total cpu time spent up to now is      163.1 secs

     Computing kpt #:   107  of   351
     total cpu time spent up to now is      164.8 secs

     Computing kpt #:   108  of   351
     total cpu time spent up to now is      166.8 secs

     Computing kpt #:   109  of   351
     total cpu time spent up to now is      168.7 secs

     Computing kpt #:   110  of   351
     total cpu time spent up to now is      170.6 secs

     Computing kpt #:   111  of   351
     total cpu time spent up to now is      172.3 secs

     Computing kpt #:   112  of   351
     total cpu time spent up to now is      173.9 secs

     Computing kpt #:   113  of   351
     total cpu time spent up to now is      176.5 secs

     Computing kpt #:   114  of   351
     total cpu time spent up to now is      179.0 secs

     Computing kpt #:   115  of   351
     total cpu time spent up to now is      181.5 secs

     Computing kpt #:   116  of   351
     total cpu time spent up to now is      183.4 secs

     Computing kpt #:   117  of   351
     total cpu time spent up to now is      185.2 secs

     Computing kpt #:   118  of   351
     total cpu time spent up to now is      186.4 secs

     Computing kpt #:   119  of   351
     total cpu time spent up to now is      188.0 secs

     Computing kpt #:   120  of   351
     total cpu time spent up to now is      189.4 secs

     Computing kpt #:   121  of   351
     total cpu time spent up to now is      190.8 secs

     Computing kpt #:   122  of   351
     total cpu time spent up to now is      192.3 secs

     Computing kpt #:   123  of   351
     total cpu time spent up to now is      193.6 secs

     Computing kpt #:   124  of   351
     total cpu time spent up to now is      195.0 secs

     Computing kpt #:   125  of   351
     total cpu time spent up to now is      196.4 secs

     Computing kpt #:   126  of   351
     total cpu time spent up to now is      197.9 secs

     Computing kpt #:   127  of   351
     total cpu time spent up to now is      199.3 secs

     Computing kpt #:   128  of   351
     total cpu time spent up to now is      200.7 secs

     Computing kpt #:   129  of   351
     total cpu time spent up to now is      202.0 secs

     Computing kpt #:   130  of   351
     total cpu time spent up to now is      203.1 secs

     Computing kpt #:   131  of   351
     total cpu time spent up to now is      204.6 secs

     Computing kpt #:   132  of   351
     total cpu time spent up to now is      206.0 secs

     Computing kpt #:   133  of   351
     total cpu time spent up to now is      207.7 secs

     Computing kpt #:   134  of   351
     total cpu time spent up to now is      209.6 secs

     Computing kpt #:   135  of   351
     total cpu time spent up to now is      210.8 secs

     Computing kpt #:   136  of   351
     total cpu time spent up to now is      212.3 secs

     Computing kpt #:   137  of   351
     total cpu time spent up to now is      214.0 secs

     Computing kpt #:   138  of   351
     total cpu time spent up to now is      215.6 secs

     Computing kpt #:   139  of   351
     total cpu time spent up to now is      217.0 secs

     Computing kpt #:   140  of   351
     total cpu time spent up to now is      218.4 secs

     Computing kpt #:   141  of   351
     total cpu time spent up to now is      219.7 secs

     Computing kpt #:   142  of   351
     total cpu time spent up to now is      221.1 secs

     Computing kpt #:   143  of   351
     total cpu time spent up to now is      222.7 secs

     Computing kpt #:   144  of   351
     total cpu time spent up to now is      223.9 secs

     Computing kpt #:   145  of   351
     total cpu time spent up to now is      225.5 secs

     Computing kpt #:   146  of   351
     total cpu time spent up to now is      226.8 secs

     Computing kpt #:   147  of   351
     total cpu time spent up to now is      228.4 secs

     Computing kpt #:   148  of   351
     total cpu time spent up to now is      229.9 secs

     Computing kpt #:   149  of   351
     total cpu time spent up to now is      231.4 secs

     Computing kpt #:   150  of   351
     total cpu time spent up to now is      232.6 secs

     Computing kpt #:   151  of   351
     total cpu time spent up to now is      234.0 secs

     Computing kpt #:   152  of   351
     total cpu time spent up to now is      236.0 secs

     Computing kpt #:   153  of   351
     total cpu time spent up to now is      237.8 secs

     Computing kpt #:   154  of   351
     total cpu time spent up to now is      239.3 secs

[...]
    14.8721  16.3602  16.5864  16.7595  17.4638  17.4938  18.9205  19.0231
    26.4611  26.9165  26.9632  27.7259  27.8871  28.1459  28.5604  29.3484
    36.5727  36.6340  37.3248  38.0658  39.0366  39.1931  39.3588  39.5932
    47.0036  47.1139  47.1897  47.2385  49.8913  50.1566  50.2118  50.2210
    51.8351  51.8471

          k = 0.2700 0.2700 0.3500 (  1322 PWs)   bands (ev):

   -72.5589 -69.3413 -39.3122 -38.7554 -38.1353 -35.7962 -35.3260 -34.9686
    11.5630  11.9295  12.1892  12.3732  12.6594  12.6919  12.8600  13.0052
    13.7500  13.8375  13.8835  13.8914  14.1195  14.4216  14.5668  14.7043
    14.8480  16.3795  16.4877  16.7330  17.2811  17.3019  18.7857  18.8885
    26.6942  27.1361  27.2150  27.9797  28.0631  28.3220  28.7209  29.4892
    37.1614  37.2232  37.8419  38.5829  38.9032  39.0556  39.1311  39.3503
    47.1590  47.2562  47.2573  47.2610  49.3246  49.6136  49.6880  49.7194
    51.7891  51.8234

          k = 0.2600 0.2600 0.3500 (  1322 PWs)   bands (ev):

   -72.5605 -69.3431 -39.3103 -38.7494 -38.1322 -35.7933 -35.3189 -34.9656
    11.4878  11.8530  12.0602  12.2772  12.6654  12.7434  12.8427  13.0389
    13.7720  13.8239  13.8508  13.9319  14.1075  14.4443  14.5363  14.6626
    14.8292  16.3885  16.4031  16.7126  17.1096  17.1216  18.6626  18.7614
    26.9340  27.3621  27.4727  28.2310  28.2543  28.5058  28.8894  29.6379
    37.7363  37.8123  38.1811  38.7123  38.9255  38.9635  39.1196  39.3232
    47.2027  47.2579  47.2897  47.3679  48.7994  49.1193  49.2375  49.3238
    51.6604  51.7336

          k = 0.2500 0.2500 0.3500 (  1324 PWs)   bands (ev):

   -72.5622 -69.3449 -39.3084 -38.7434 -38.1291 -35.7906 -35.3118 -34.9626
    11.4089  11.7680  11.9276  12.1767  12.6693  12.7935  12.8229  13.0686
    13.7834  13.8129  13.8247  13.9820  14.1019  14.4508  14.5171  14.6271
    14.8167  16.2968  16.4229  16.6983  16.9491  16.9523  18.5501  18.6409
    27.1802  27.5945  27.7358  28.4345  28.5057  28.6971  29.0661  29.7949
    38.1854  38.2259  38.3820  38.5736  38.8326  38.9243  39.3575  39.8685
    47.0207  47.1359  47.3308  47.3909  48.3800  48.7295  48.9265  49.0685
    51.4412  51.5597

          k = 0.2400 0.2400 0.3500 (  1320 PWs)   bands (ev):

   -72.5638 -69.3467 -39.3065 -38.7372 -38.1259 -35.7878 -35.3046 -34.9595
    11.3267  11.6755  11.7927  12.0723  12.6718  12.8008  12.8403  13.0939
    13.7600  13.8132  13.8305  14.0312  14.1033  14.4379  14.5109  14.6002
    14.8111  16.2056  16.4457  16.6865  16.7931  16.8022  18.4473  18.5264
    27.4326  27.8331  28.0043  28.6351  28.7722  28.8962  29.2513  29.9604
    38.0739  38.3043  38.4129  38.5921  39.1028  39.1477  39.8969  40.4437
    46.7028  46.8526  47.1387  47.2297  48.2100  48.5404  48.7930  48.9653
    51.1348  51.2986

          k = 0.2300 0.2300 0.3500 (  1308 PWs)   bands (ev):

   -72.5653 -69.3485 -39.3045 -38.7309 -38.1225 -35.7849 -35.2972 -34.9561
    11.2413  11.5765  11.6566  11.9643  12.6730  12.7769  12.8827  13.1152
    13.7252  13.8197  13.8520  14.0770  14.1122  14.4163  14.5044  14.5854
    14.8132  16.1172  16.4692  16.6305  16.6434  16.7143  18.3533  18.4170
    27.6913  28.0779  28.2781  28.8433  29.0428  29.1033  29.4452  30.1347
    37.9286  38.1573  38.2602  38.4189  39.6740  39.7045  40.4738  41.0253
    46.2840  46.4406  46.7247  46.8759  48.2779  48.5601  48.8045  48.9794
    50.7583  50.9602

          k = 0.2200 0.2200 0.3500 (  1308 PWs)   bands (ev):

   -72.5669 -69.3503 -39.3027 -38.7249 -38.1193 -35.7822 -35.2901 -34.9529
    11.1529  11.4719  11.5203  11.8534  12.6729  12.7511  12.9208  13.1335
    13.6892  13.8355  13.8753  14.1165  14.1298  14.3938  14.4912  14.5825
    14.8232  16.0316  16.4861  16.5040  16.5100  16.7089  18.2677  18.3121
    27.9560  28.3286  28.5565  29.0594  29.3072  29.3277  29.6475  30.3178
    37.7799  37.9804  38.1143  38.2259  40.2758  40.3002  41.0624  41.6080
    45.8077  45.9585  46.2307  46.4255  48.4412  48.6920  48.9023  49.0669
    50.3341  50.5627

          k = 0.2100 0.2100 0.3500 (  1312 PWs)   bands (ev):

   -72.5685 -69.3521 -39.3010 -38.7190 -38.1162 -35.7797 -35.2831 -34.9498
    11.0622  11.3629  11.3848  11.7404  12.6716  12.7240  12.9551  13.1496
    13.6536  13.8597  13.8995  14.1443  14.1600  14.3727  14.4749  14.5866
    14.8410  15.9490  16.3661  16.3768  16.5202  16.7157  18.1899  18.2115
    28.2266  28.5853  28.8397  29.2835  29.5346  29.6001  29.8587  30.5099
    37.6344  37.8025  37.9762  38.0370  40.8822  40.9036  41.6543  42.1887
    45.3030  45.4441  45.7155  45.9402  48.6411  48.8740  49.0484  49.1989
    49.8829  50.1261

          k = 0.2000 0.2000 0.3500 (  1310 PWs)   bands (ev):

   -72.5701 -69.3538 -39.2992 -38.7131 -38.1130 -35.7772 -35.2761 -34.9466
    10.9696  11.2501  11.2516  11.6260  12.6691  12.6958  12.9865  13.1649
    13.6188  13.8900  13.9251  14.1707  14.1911  14.3538  14.4592  14.5941
    14.8664  15.8696  16.2390  16.2539  16.5449  16.7253  18.1119  18.1228
    28.5032  28.8479  29.1277  29.5156  29.7635  29.8816  30.0788  30.7112
    37.4945  37.6294  37.8452  37.8559  41.4874  41.5051  42.2440  42.7640
    44.7856  44.9164  45.1964  45.4442  48.8597  49.0819  49.2235  49.3593
    49.4223  49.6685

          k = 0.1900 0.1900 0.3500 (  1312 PWs)   bands (ev):

   -72.5716 -69.3555 -39.2976 -38.7074 -38.1099 -35.7748 -35.2693 -34.9434
    10.8760  11.1194  11.1367  11.5111  12.6636  12.6685  13.0160  13.1803
    13.5850  13.9225  13.9543  14.1995  14.2183  14.3376  14.4456  14.6039
    14.8986  15.7932  16.1176  16.1361  16.5699  16.7347  18.0185  18.0610
    28.7855  29.1163  29.4202  29.7553  29.9990  30.1664  30.3084  30.9216
    37.3611  37.4628  37.6801  37.7244  42.0862  42.0971  42.8256  43.3285
    44.2640  44.3848  44.6798  44.9469  48.9646  49.0916  49.2028  49.3058
    49.3896  49.4199

          k = 0.1800 0.1800 0.3500 (  1304 PWs)   bands (ev):

   -72.5731 -69.3572 -39.2959 -38.7016 -38.1067 -35.7724 -35.2624 -34.9401
    10.7820  10.9911  11.0218  11.3966  12.6364  12.6615  13.0447  13.1970
    13.5525  13.9521  13.9905  14.2284  14.2428  14.3241  14.4349  14.6158
    14.9366  15.7201  16.0017  16.0231  16.5947  16.7416  17.9269  18.0091
    29.0737  29.3906  29.7175  30.0027  30.2412  30.4527  30.5488  31.1413
    37.2345  37.3035  37.5136  37.6096  42.6691  42.6716  43.3907  43.7426
    43.8515  43.8766  44.1695  44.4528  48.5309  48.7498  48.9434  49.3315
    49.3729  49.5425

          k = 0.1700 0.1700 0.3500 (  1300 PWs)   bands (ev):

   -72.5745 -69.3588 -39.2943 -38.6960 -38.1036 -35.7701 -35.2558 -34.9370
    10.6883  10.8666  10.9073  11.2833  12.6066  12.6559  13.0735  13.2157
    13.5213  13.9776  14.0331  14.2515  14.2693  14.3145  14.4274  14.6300
    14.9791  15.6502  15.8906  15.9145  16.6189  16.7440  17.8378  17.9666
    29.3675  29.6707  30.0191  30.2574  30.4899  30.7361  30.8040  31.3700
    37.1145  37.1514  37.3545  37.5020  43.1833  43.2254  43.2460  43.3335
    43.6620  43.9152  43.9735  44.3881  48.1383  48.3258  48.5293  48.9427
    49.5795  49.7867

          k = 0.1600 0.1600 0.3500 (  1300 PWs)   bands (ev):

   -72.5759 -69.3604 -39.2929 -38.6907 -38.1007 -35.7680 -35.2495 -34.9339
    10.5958  10.7465  10.7943  11.1722  12.5768  12.6497  13.1031  13.2369
    13.4915  14.0009  14.0786  14.2661  14.2932  14.3152  14.4230  14.6464
    15.0248  15.5835  15.7840  15.8101  16.6422  16.7403  17.7510  17.9340
    29.6671  29.9565  30.3249  30.5191  30.7449  31.0098  31.0802  31.6075
    37.0001  37.0074  37.2025  37.4011  42.7094  42.8032  43.1631  43.4785
    43.6780  43.7498  44.4002  44.8391  47.8196  47.9635  48.1689  48.5762
    49.8337  50.0380

          k = 0.1500 0.1500 0.3500 (  1296 PWs)   bands (ev):

   -72.5772 -69.3619 -39.2913 -38.6856 -38.0978 -35.7659 -35.2434 -34.9309
    10.5053  10.6314  10.6838  11.0639  12.5473  12.6430  13.1341  13.2611
    13.4634  14.0230  14.1247  14.2731  14.2998  14.3395  14.4219  14.6654
    15.0727  15.5201  15.6817  15.7098  16.6632  16.7307  17.6665  17.9111
    29.9723  30.2481  30.6349  30.7874  31.0058  31.2777  31.3732  31.8536
    36.8678  36.8945  37.0575  37.3063  42.2025  42.2876  42.6722  43.0032
    44.0353  44.1838  44.7610  45.1809  47.6244  47.7192  47.9009  48.3248
    50.0933  50.2953

          k = 0.1400 0.1400 0.3500 (  1300 PWs)   bands (ev):

   -72.5786 -69.3633 -39.2901 -38.6808 -38.0951 -35.7641 -35.2376 -34.9281
    10.4173  10.5216  10.5768  10.9594  12.5186  12.6358  13.1669  13.2885
    13.4370  14.0442  14.1698  14.2733  14.3059  14.3693  14.4242  14.6869
    15.1215  15.4598  15.5837  15.6138  16.6763  16.7200  17.5843  17.8976
    30.2832  30.5455  30.9489  31.0619  31.2721  31.5476  31.6747  32.1078
    36.7359  36.7929  36.9185  37.2169  41.7019  41.7785  42.1886  42.5344
    44.2238  44.4831  44.9325  45.3460  47.6115  47.6711  47.7817  48.2571
    50.3577  50.5574

          k = 0.1300 0.1300 0.3500 (  1300 PWs)   bands (ev):

   -72.5798 -69.3647 -39.2888 -38.6762 -38.0925 -35.7622 -35.2321 -34.9253
    10.3327  10.4179  10.4741  10.8591  12.4908  12.6283  13.2015  13.3188
    13.4129  14.0646  14.2123  14.2710  14.3133  14.3976  14.4297  14.7109
    15.1700  15.4025  15.4901  15.5225  16.6649  16.7249  17.5044  17.8925
    30.5996  30.8487  31.2670  31.3420  31.5432  31.8221  31.9816  32.3696
    36.6099  36.6965  36.7853  37.1322  41.2084  41.2766  41.7127  42.0733
    44.2171  44.5960  44.8766  45.2995  47.8090  47.8586  47.8655  48.4102
    50.6260  50.8232

          k = 0.1200 0.1200 0.3500 (  1300 PWs)   bands (ev):

   -72.5809 -69.3660 -39.2877 -38.6717 -38.0900 -35.7606 -35.2269 -34.9227
    10.2520  10.3203  10.3764  10.7640  12.4642  12.6207  13.2381  13.3496
    13.3935  14.0842  14.2506  14.2688  14.3212  14.4230  14.4381  14.7372
    15.2162  15.3476  15.4024  15.4371  16.6338  16.7414  17.4271  17.8945
    30.9217  31.1576  31.5887  31.6272  31.8183  32.1014  32.2926  32.6383
    36.4889  36.6045  36.6569  37.0514  40.7224  40.7824  41.2448  41.6200
    44.0493  44.5230  44.6464  45.0832  48.1506  48.1837  48.2324  48.7435
    50.8975  51.0851

          k = 0.1100 0.1100 0.3500 (  1300 PWs)   bands (ev):

   -72.5820 -69.3672 -39.2866 -38.6676 -38.0877 -35.7591 -35.2220 -34.9202
    10.1758  10.2294  10.2844  10.6744  12.4389  12.6131  13.2763  13.3587
    13.4014  14.1029  14.2664  14.2830  14.3306  14.4441  14.4492  14.7655
    15.2499  15.2927  15.3300  15.3611  16.5939  16.7596  17.3526  17.9021
    31.2492  31.4722  31.9089  31.9214  32.0967  32.3849  32.6071  32.9129
    36.3721  36.5146  36.5339  36.9735  40.2442  40.2959  40.7849  41.1748
    43.7820  44.3174  44.3236  44.7688  48.5864  48.6761  48.7113  49.1864
    51.1712  51.3515

          k = 0.1000 0.1000 0.3500 (  1302 PWs)   bands (ev):

   -72.5830 -69.3683 -39.2857 -38.6638 -38.0855 -35.7577 -35.2174 -34.9179
    10.1046  10.1454  10.1987  10.5910  12.4153  12.6057  13.3139  13.3458
    13.4386  14.1206  14.2654  14.3043  14.3445  14.4591  14.4631  14.7955
    15.2182  15.2336  15.2882  15.3373  16.5488  16.7773  17.2812  17.9138
    31.5820  31.7924  32.2051  32.2458  32.3774  32.6717  32.9248  33.1922
    36.2585  36.4070  36.4340  36.8974  39.7740  39.8176  40.3334  40.7380
    43.4638  43.9553  44.0445  44.4086  49.1139  49.2384  49.2446  49.6876
    51.4463  51.6220

          k = 0.0900 0.0900 0.3500 (  1308 PWs)   bands (ev):

   -72.5840 -69.3694 -39.2849 -38.6604 -38.0836 -35.7566 -35.2134 -34.9159
    10.0389  10.0687  10.1198  10.5142  12.3935  12.5986  13.3211  13.3634
    13.4820  14.1373  14.2650  14.3153  14.3622  14.4682  14.4777  14.8267
    15.1484  15.1758  15.2374  15.3738  16.5004  16.7939  17.2133  17.9281
    31.9201  32.1181  32.4985  32.5777  32.6590  32.9603  33.2451  33.4748
    36.1468  36.2872  36.3491  36.8217  39.3120  39.3476  39.8905  40.3098
    43.1256  43.5768  43.7387  44.0330  49.6941  49.8032  49.8424  50.2176
    51.7218  51.8837

          k = 0.0800 0.0800 0.3500 (  1310 PWs)   bands (ev):

   -72.5848 -69.3703 -39.2841 -38.6573 -38.0818 -35.7555 -35.2096 -34.9139
     9.9791   9.9994  10.0481  10.4445  12.3736  12.5919  13.3070  13.4046
    13.5287  14.1528  14.2652  14.3210  14.3779  14.4698  14.4925  14.8584
    15.0810  15.1195  15.1953  15.4145  16.4505  16.8092  17.1493  17.9437
    32.2630  32.4490  32.7918  32.9124  32.9403  33.2490  33.5676  33.7590
    36.0355  36.1665  36.2651  36.7448  38.8586  38.8864  39.4568  39.8910
    42.7866  43.2029  43.4270  43.6602  50.3035  50.3718  50.4691  50.7590
    51.9962  52.1489

          k = 0.0700 0.0700 0.3500 (  1310 PWs)   bands (ev):

   -72.5856 -69.3711 -39.2834 -38.6545 -38.0802 -35.7545 -35.2062 -34.9122
     9.9255   9.9378   9.9841  10.3821  12.3557  12.5858  13.2932  13.4475
    13.5777  14.1668  14.2658  14.3244  14.3881  14.4625  14.5070  14.8897
    15.0206  15.0702  15.1597  15.4538  16.4007  16.8230  17.0900  17.9597
    32.6103  32.7846  33.0836  33.2197  33.2489  33.5358  33.8913  34.0427
    35.9229  36.0438  36.1796  36.6648  38.4140  38.4343  39.0332  39.4823
    42.4596  42.8448  43.1245  43.3021  50.9274  50.9394  51.1072  51.3002
    52.2681  52.4169

          k = 0.0600 0.0600 0.3500 (  1306 PWs)   bands (ev):

   -72.5862 -69.3718 -39.2828 -38.6519 -38.0787 -35.7536 -35.2031 -34.9106
     9.8786   9.8841   9.9280  10.3275  12.3400  12.5803  13.2809  13.4902
    13.6283  14.1793  14.2667  14.3265  14.3909  14.4468  14.5203  14.9192
    14.9689  15.0310  15.1296  15.4902  16.3527  16.8351  17.0360  17.9750
    32.9612  33.1237  33.3723  33.4955  33.5855  33.8182  34.2147  34.3235
    35.8067  35.9171  36.0904  36.5795  37.9789  37.9923  38.6211  39.0852
    42.1544  42.5116  42.8421  42.9682  51.4954  51.5552  51.7471  51.8308
    52.5353  52.6870

          k = 0.0500 0.0500 0.3500 (  1306 PWs)   bands (ev):

   -72.5867 -69.3725 -39.2823 -38.6497 -38.0775 -35.7528 -35.2006 -34.9092
     9.8384   9.8384   9.8800  10.2808  12.3266  12.5754  13.2704  13.5315
    13.6795  14.1899  14.2679  14.3273  14.3842  14.4256  14.5317  14.9270
    14.9433  15.0048  15.1045  15.5229  16.3080  16.8455  16.9881  17.9890
    33.3141  33.4639  33.6571  33.7658  33.9196  34.0931  34.5352  34.5984
    35.6848  35.7844  35.9952  36.4863  37.5541  37.5615  38.2227  38.7021
    41.8789  42.2108  42.5880  42.6667  52.0301  52.1752  52.3398  52.3790
    52.7950  52.9584

          k = 0.0400 0.0400 0.3500 (  1298 PWs)   bands (ev):

   -72.5871 -69.3729 -39.2817 -38.6478 -38.0763 -35.7521 -35.1983 -34.9080
     9.8008   9.8053   9.8405  10.2423  12.3155  12.5714  13.2618  13.5696
    13.7298  14.1985  14.2693  14.3268  14.3651  14.4055  14.5411  14.8953
    14.9526  14.9990  15.0846  15.5511  16.2683  16.8541  16.9472  18.0011
    33.6658  33.7984  33.9401  34.0290  34.2466  34.3570  34.8481  34.8638
    35.5551  35.6439  35.8915  36.3825  37.1416  37.1447  37.8427  38.3375
    41.6412  41.9505  42.3697  42.4055  52.5292  52.7739  52.8141  52.9892
    53.0428  53.2301

          k = 0.0300 0.0300 0.3500 (  1298 PWs)   bands (ev):

   -72.5875 -69.3733 -39.2813 -38.6465 -38.0755 -35.7516 -35.1967 -34.9071
     9.7715   9.7793   9.8096  10.2122  12.3068  12.5682  13.2550  13.6029
    13.7770  14.2048  14.2705  14.3225  14.3383  14.3902  14.5484  14.8731
    14.9469  15.0103  15.0702  15.5741  16.2352  16.8608  16.9141  18.0109
    34.0098  34.1080  34.2329  34.2838  34.5578  34.6051  35.1145  35.1432
    35.4175  35.4945  35.7773  36.2653  36.7455  36.7473  37.4894  37.9999
    41.4476  41.7377  42.1919  42.1930  52.9729  53.2336  53.2713  53.3307
    53.4669  53.5019

          k = 0.0200 0.0200 0.3500 (  1302 PWs)   bands (ev):

   -72.5878 -69.3736 -39.2811 -38.6456 -38.0750 -35.7513 -35.1957 -34.9065
     9.7505   9.7607   9.7875  10.1906  12.3006  12.5658  13.2502  13.6292
    13.8175  14.2085  14.2713  14.3016  14.3263  14.3790  14.5535  14.8588
    14.9401  15.0213  15.0624  15.5911  16.2102  16.8655  16.8898  18.0181
    34.3300  34.3722  34.5302  34.5408  34.8307  34.8345  35.2504  35.3095
    35.3765  35.4192  35.6540  36.1331  36.3762  36.3825  37.1805  37.7063
    41.3043  41.5798  42.0336  42.0624  53.3334  53.4671  53.5728  53.6707
    53.7728  53.8092

          k = 0.0100 0.0100 0.3500 (  1302 PWs)   bands (ev):

   -72.5880 -69.3738 -39.2809 -38.6450 -38.0746 -35.7511 -35.1950 -34.9061
     9.7379   9.7495   9.7741  10.1776  12.2968  12.5644  13.2473  13.6461
    13.8460  14.2096  14.2700  14.2822  14.3224  14.3722  14.5566  14.8510
    14.9359  15.0262  15.0606  15.6016  16.1946  16.8678  16.8754  18.0225
    34.5895  34.5914  34.7629  34.8198  35.0090  35.0300  35.1224  35.1607
    35.5105  35.5689  35.6244  35.9892  36.0667  36.0877  36.9522  37.4914
    41.2161  41.4824  41.9359  41.9824  53.5742  53.6071  53.7980  53.8202
    54.0413  54.1505

          k = 0.0000 0.0000 0.3500 (  1298 PWs)   bands (ev):

   -72.5880 -69.3739 -39.2807 -38.6448 -38.0744 -35.7509 -35.1947 -34.9059
     9.7337   9.7458   9.7697  10.1733  12.2956  12.5640  13.2463  13.6520
    13.8565  14.2095  14.2669  14.2776  14.3209  14.3699  14.5577  14.8486
    14.9345  15.0271  15.0609  15.6052  16.1894  16.8673  16.8719  18.0240
    34.7064  34.7091  34.9476  34.9682  34.9692  34.9701  35.1409  35.1438
    35.4409  35.6943  35.6946  35.8861  35.9244  35.9601  36.8637  37.4089
    41.1867  41.4494  41.9029  41.9558  53.6597  53.6597  53.8777  53.8777
    54.2778  54.2778

     Writing all to output data dir ./work/pwscf.save/
 
     init_run     :      0.14s CPU      0.20s WALL (       1 calls)
     electrons    :    123.89s CPU    529.15s WALL (       1 calls)

     Called by init_run:
     wfcinit      :      0.00s CPU      0.00s WALL (       1 calls)
     wfcinit:atom :      0.01s CPU      0.01s WALL (     351 calls)
     wfcinit:wfcr :      3.00s CPU     20.77s WALL (     351 calls)
     potinit      :      0.00s CPU      0.01s WALL (       1 calls)
     hinit0       :      0.08s CPU      0.11s WALL (       1 calls)

     Called by electrons:
     c_bands      :    123.89s CPU    529.15s WALL (       1 calls)
     v_of_rho     :      0.00s CPU      0.01s WALL (       1 calls)
     v_h          :      0.00s CPU      0.00s WALL (       1 calls)
     v_xc         :      0.00s CPU      0.01s WALL (       1 calls)
     newd         :      0.05s CPU      0.06s WALL (       1 calls)

     Called by c_bands:
     init_us_2    :      0.01s CPU      0.01s WALL (     351 calls)
     init_us_2:cp :      0.01s CPU      0.01s WALL (     351 calls)
     cegterg      :    120.70s CPU    508.13s WALL (     853 calls)

     Called by sum_band:

     Called by *egterg:
     cdiaghg      :     47.56s CPU     49.08s WALL (   14228 calls)
     cegterg:over :      6.26s CPU     10.43s WALL (   13877 calls)
     cegterg:upda :      1.15s CPU      1.43s WALL (   13877 calls)
     cegterg:last :      3.66s CPU      4.00s WALL (    8144 calls)
     h_psi        :     61.75s CPU    459.15s WALL (   15081 calls)
     s_psi        :      1.85s CPU      2.70s WALL (   15081 calls)
     g_psi        :      0.06s CPU      0.08s WALL (   13877 calls)

     Called by h_psi:
     h_psi:calbec :      2.28s CPU      7.08s WALL (   15081 calls)
     vloc_psi     :     57.83s CPU    448.80s WALL (   15081 calls)
     add_vuspsi   :      1.56s CPU      3.14s WALL (   15081 calls)

     General routines
     calbec       :      2.27s CPU      7.07s WALL (   15081 calls)
     fft          :      0.00s CPU      0.01s WALL (      31 calls)
     ffts         :      0.00s CPU      0.00s WALL (       4 calls)
     fftw         :     56.96s CPU    444.63s WALL ( 1881376 calls)
     interpolate  :      0.00s CPU      0.00s WALL (       4 calls)
 
     Parallel routines
 
     PWSCF        :   2m 8.03s CPU   9m15.92s WALL

 
   This run was terminated on:  18:58:40  25Aug2023            

=------------------------------------------------------------------------------=
   JOB DONE.
=------------------------------------------------------------------------------=
