
     Program PWSCF v.7.1 starts on 15Nov2022 at  8:13: 9 

     This program is part of the open-source Quantum ESPRESSO suite
     for quantum simulation of materials; please cite
         "P. Giannozzi et al., J. Phys.:Condens. Matter 21 395502 (2009);
         "P. Giannozzi et al., J. Phys.:Condens. Matter 29 465901 (2017);
         "P. Giannozzi et al., J. Chem. Phys. 152 154105 (2020);
          URL http://www.quantum-espresso.org", 
     in publications or presentations arising from this work. More details at
     http://www.quantum-espresso.org/quote

     Parallel version (MPI), running on    12 processors

     MPI processes distributed on     1 nodes
     376981 MiB available memory on the printing compute node when the environment starts
 
     Waiting for input...
     Reading input from standard input

     Current dimensions of program PWSCF are:
     Max number of different atomic species (ntypx) = 10
     Max number of k-points (npk) =  40000
     Max angular momentum in pseudopotentials (lmaxx) =  4
     file Pt.rel-pbe-n-rrkjus_psl.0.1.UPF: wavefunction(s)  5D renormalized

     Fixed quantization axis for GGA:     0.000000    0.000000    1.000000
 
     K-points division:     npool     =       3
     R & G space division:  proc/nbgrp/npool/nimage =       4
     Subspace diagonalization in iterative solution of the eigenvalue problem:
     a serial algorithm will be used

 
     Parallelization info
     --------------------
     sticks:   dense  smooth     PW     G-vecs:    dense   smooth      PW
     Min         412     136     44                17536     3292     578
     Max         413     137     45                17541     3295     581
     Sum        1649     545    177                70151    13173    2317
 
     Using Slab Decomposition
 


     bravais-lattice index     =            6
     lattice parameter (alat)  =       5.1554  a.u.
     unit-cell volume          =     189.8042 (a.u.)^3
     number of atoms/cell      =            2
     number of atomic types    =            2
     number of electrons       =        26.00
     number of Kohn-Sham states=           34
     kinetic-energy cutoff     =      64.0000  Ry
     charge density cutoff     =     782.0000  Ry
     Exchange-correlation= PBE
                           (   1   4   3   4   0   0   0)
     Noncollinear calculation with spin-orbit


     celldm(1)=   5.155443  celldm(2)=   0.000000  celldm(3)=   1.385185
     celldm(4)=   0.000000  celldm(5)=   0.000000  celldm(6)=   0.000000

     crystal axes: (cart. coord. in units of alat)
               a(1) = (   1.000000   0.000000   0.000000 )  
               a(2) = (   0.000000   1.000000   0.000000 )  
               a(3) = (   0.000000   0.000000   1.385185 )  

     reciprocal axes: (cart. coord. in units 2 pi/alat)
               b(1) = (  1.000000  0.000000  0.000000 )  
               b(2) = (  0.000000  1.000000  0.000000 )  
               b(3) = (  0.000000  0.000000  0.721925 )  


     PseudoPot. # 1 for Fe read from file:
     /home4/koretsune/PWSCF/pseudo_psl031/Fe.rel-pbe-spn-rrkjus_psl.0.2.1.UPF
     MD5 check sum: e4688d448a4fb973b820eb5309e921a0
     Pseudo is Ultrasoft + core correction, Zval = 16.0
     Generated using "atomic" code by A. Dal Corso  v.5.0.99 svn rev. 10869
     Using radial grid of 1191 points, 10 beta functions with: 
                l(1) =   0
                l(2) =   0
                l(3) =   1
                l(4) =   1
                l(5) =   1
                l(6) =   1
                l(7) =   2
                l(8) =   2
                l(9) =   2
               l(10) =   2
     Q(r) pseudized with 0 coefficients 


     PseudoPot. # 2 for Pt read from file:
     /home4/koretsune/PWSCF/pseudo_psl031/Pt.rel-pbe-n-rrkjus_psl.0.1.UPF
     MD5 check sum: 75c9b7c8bba3558fb64ef7de01c2f511
     Pseudo is Ultrasoft + core correction, Zval = 10.0
     Generated using "atomic" code by A. Dal Corso  v.5.0.99 svn rev. 10869
     Using radial grid of 1277 points, 10 beta functions with: 
                l(1) =   0
                l(2) =   0
                l(3) =   1
                l(4) =   1
                l(5) =   1
                l(6) =   1
                l(7) =   2
                l(8) =   2
                l(9) =   2
               l(10) =   2
     Q(r) pseudized with 0 coefficients 


     atomic species   valence    mass     pseudopotential
        Fe            16.00    55.84500     Fe( 1.00)
        Pt            10.00   195.08400     Pt( 1.00)

     16 Sym. Ops., with inversion, found


                                    s                        frac. trans.

      isym =  1     identity                                     

 Time Reversal            0
 cryst.   s( 1) = (     1          0          0      )
                  (     0          1          0      )
                  (     0          0          1      )

 cart.    s( 1) = (  1.0000000  0.0000000  0.0000000 )
                  (  0.0000000  1.0000000  0.0000000 )
                  (  0.0000000  0.0000000  1.0000000 )


      isym =  2     180 deg rotation - cart. axis [0,0,1]        

 Time Reversal            0
 cryst.   s( 2) = (    -1          0          0      )
                  (     0         -1          0      )
                  (     0          0          1      )

 cart.    s( 2) = ( -1.0000000  0.0000000  0.0000000 )
                  (  0.0000000 -1.0000000  0.0000000 )
                  (  0.0000000  0.0000000  1.0000000 )


      isym =  3     180 deg rotation - cart. axis [0,1,0]        

 Time Reversal            1
 cryst.   s( 3) = (    -1          0          0      )
                  (     0          1          0      )
                  (     0          0         -1      )

 cart.    s( 3) = ( -1.0000000  0.0000000  0.0000000 )
                  (  0.0000000  1.0000000  0.0000000 )
                  (  0.0000000  0.0000000 -1.0000000 )


      isym =  4     180 deg rotation - cart. axis [1,0,0]        

 Time Reversal            1
 cryst.   s( 4) = (     1          0          0      )
                  (     0         -1          0      )
                  (     0          0         -1      )

 cart.    s( 4) = (  1.0000000  0.0000000  0.0000000 )
                  (  0.0000000 -1.0000000  0.0000000 )
                  (  0.0000000  0.0000000 -1.0000000 )


      isym =  5     180 deg rotation - cart. axis [1,1,0]        

 Time Reversal            1
 cryst.   s( 5) = (     0          1          0      )
                  (     1          0          0      )
                  (     0          0         -1      )

 cart.    s( 5) = (  0.0000000  1.0000000  0.0000000 )
                  (  1.0000000  0.0000000  0.0000000 )
                  (  0.0000000  0.0000000 -1.0000000 )


      isym =  6     180 deg rotation - cart. axis [1,-1,0]       

 Time Reversal            1
 cryst.   s( 6) = (     0         -1          0      )
                  (    -1          0          0      )
                  (     0          0         -1      )

 cart.    s( 6) = (  0.0000000 -1.0000000  0.0000000 )
                  ( -1.0000000  0.0000000  0.0000000 )
                  (  0.0000000  0.0000000 -1.0000000 )


      isym =  7      90 deg rotation - cart. axis [0,0,-1]       

 Time Reversal            0
 cryst.   s( 7) = (     0         -1          0      )
                  (     1          0          0      )
                  (     0          0          1      )

 cart.    s( 7) = (  0.0000000  1.0000000  0.0000000 )
                  ( -1.0000000  0.0000000  0.0000000 )
                  (  0.0000000  0.0000000  1.0000000 )


      isym =  8      90 deg rotation - cart. axis [0,0,1]        

 Time Reversal            0
 cryst.   s( 8) = (     0          1          0      )
                  (    -1          0          0      )
                  (     0          0          1      )

 cart.    s( 8) = (  0.0000000 -1.0000000  0.0000000 )
                  (  1.0000000  0.0000000  0.0000000 )
                  (  0.0000000  0.0000000  1.0000000 )


      isym =  9     inversion                                    

 Time Reversal            0
 cryst.   s( 9) = (    -1          0          0      )
                  (     0         -1          0      )
                  (     0          0         -1      )

 cart.    s( 9) = ( -1.0000000  0.0000000  0.0000000 )
                  (  0.0000000 -1.0000000  0.0000000 )
                  (  0.0000000  0.0000000 -1.0000000 )


      isym = 10     inv. 180 deg rotation - cart. axis [0,0,1]   

 Time Reversal            0
 cryst.   s(10) = (     1          0          0      )
                  (     0          1          0      )
                  (     0          0         -1      )

 cart.    s(10) = (  1.0000000  0.0000000  0.0000000 )
                  (  0.0000000  1.0000000  0.0000000 )
                  (  0.0000000  0.0000000 -1.0000000 )


      isym = 11     inv. 180 deg rotation - cart. axis [0,1,0]   

 Time Reversal            1
 cryst.   s(11) = (     1          0          0      )
                  (     0         -1          0      )
                  (     0          0          1      )

 cart.    s(11) = (  1.0000000  0.0000000  0.0000000 )
                  (  0.0000000 -1.0000000  0.0000000 )
                  (  0.0000000  0.0000000  1.0000000 )


      isym = 12     inv. 180 deg rotation - cart. axis [1,0,0]   

 Time Reversal            1
 cryst.   s(12) = (    -1          0          0      )
                  (     0          1          0      )
                  (     0          0          1      )

 cart.    s(12) = ( -1.0000000  0.0000000  0.0000000 )
                  (  0.0000000  1.0000000  0.0000000 )
                  (  0.0000000  0.0000000  1.0000000 )


      isym = 13     inv. 180 deg rotation - cart. axis [1,1,0]   

 Time Reversal            1
 cryst.   s(13) = (     0         -1          0      )
                  (    -1          0          0      )
                  (     0          0          1      )

 cart.    s(13) = (  0.0000000 -1.0000000  0.0000000 )
                  ( -1.0000000  0.0000000  0.0000000 )
                  (  0.0000000  0.0000000  1.0000000 )


      isym = 14     inv. 180 deg rotation - cart. axis [1,-1,0]  

 Time Reversal            1
 cryst.   s(14) = (     0          1          0      )
                  (     1          0          0      )
                  (     0          0          1      )

 cart.    s(14) = (  0.0000000  1.0000000  0.0000000 )
                  (  1.0000000  0.0000000  0.0000000 )
                  (  0.0000000  0.0000000  1.0000000 )


      isym = 15     inv.  90 deg rotation - cart. axis [0,0,-1]  

 Time Reversal            0
 cryst.   s(15) = (     0          1          0      )
                  (    -1          0          0      )
                  (     0          0         -1      )

 cart.    s(15) = (  0.0000000 -1.0000000  0.0000000 )
                  (  1.0000000  0.0000000  0.0000000 )
                  (  0.0000000  0.0000000 -1.0000000 )


      isym = 16     inv.  90 deg rotation - cart. axis [0,0,1]   

 Time Reversal            0
 cryst.   s(16) = (     0         -1          0      )
                  (     1          0          0      )
                  (     0          0         -1      )

 cart.    s(16) = (  0.0000000  1.0000000  0.0000000 )
                  ( -1.0000000  0.0000000  0.0000000 )
                  (  0.0000000  0.0000000 -1.0000000 )


     the magnetic double point group is D_4h(4/mmm) [C_4h (4/m) ]
     using the double point group C_4h (4/m) 
     there are 16 classes and  8 irreducible representations
     the character table:

       E     -E    C4    -C4   C2    -C2   C4^3  -C4^3 i     -i    S4^3  -S4^3
                                                                              
G_5+   1.00 -1.00  0.71 -0.71  0.00  0.00  0.71 -0.71  1.00 -1.00  0.71 -0.71
G_6+   1.00 -1.00  0.71 -0.71  0.00  0.00  0.71 -0.71  1.00 -1.00  0.71 -0.71
G_7+   1.00 -1.00 -0.71  0.71  0.00  0.00 -0.71  0.71  1.00 -1.00 -0.71  0.71
G_8+   1.00 -1.00 -0.71  0.71  0.00  0.00 -0.71  0.71  1.00 -1.00 -0.71  0.71
G_5-   1.00 -1.00  0.71 -0.71  0.00  0.00  0.71 -0.71 -1.00  1.00 -0.71  0.71
G_6-   1.00 -1.00  0.71 -0.71  0.00  0.00  0.71 -0.71 -1.00  1.00 -0.71  0.71
G_7-   1.00 -1.00 -0.71  0.71  0.00  0.00 -0.71  0.71 -1.00  1.00  0.71 -0.71
G_8-   1.00 -1.00 -0.71  0.71  0.00  0.00 -0.71  0.71 -1.00  1.00  0.71 -0.71

       s_h   -s_h  S4    -S4  
                              
G_5+   0.00  0.00  0.71 -0.71
G_6+   0.00  0.00  0.71 -0.71
G_7+   0.00  0.00 -0.71  0.71
G_8+   0.00  0.00 -0.71  0.71
G_5-   0.00  0.00 -0.71  0.71
G_6-   0.00  0.00 -0.71  0.71
G_7-   0.00  0.00  0.71 -0.71
G_8-   0.00  0.00  0.71 -0.71

     imaginary part

       E     -E    C4    -C4   C2    -C2   C4^3  -C4^3 i     -i    S4^3  -S4^3
                                                                              
G_5+   0.00  0.00  0.71 -0.71  1.00 -1.00 -0.71  0.71  0.00  0.00  0.71 -0.71
G_6+   0.00  0.00 -0.71  0.71 -1.00  1.00  0.71 -0.71  0.00  0.00 -0.71  0.71
G_7+   0.00  0.00 -0.71  0.71  1.00 -1.00  0.71 -0.71  0.00  0.00 -0.71  0.71
G_8+   0.00  0.00  0.71 -0.71 -1.00  1.00 -0.71  0.71  0.00  0.00  0.71 -0.71
G_5-   0.00  0.00  0.71 -0.71  1.00 -1.00 -0.71  0.71  0.00  0.00 -0.71  0.71
G_6-   0.00  0.00 -0.71  0.71 -1.00  1.00  0.71 -0.71  0.00  0.00  0.71 -0.71
G_7-   0.00  0.00 -0.71  0.71  1.00 -1.00  0.71 -0.71  0.00  0.00  0.71 -0.71
G_8-   0.00  0.00  0.71 -0.71 -1.00  1.00 -0.71  0.71  0.00  0.00 -0.71  0.71

       s_h   -s_h  S4    -S4  
                              
G_5+   1.00 -1.00 -0.71  0.71
G_6+  -1.00  1.00  0.71 -0.71
G_7+   1.00 -1.00  0.71 -0.71
G_8+  -1.00  1.00 -0.71  0.71
G_5-  -1.00  1.00  0.71 -0.71
G_6-   1.00 -1.00 -0.71  0.71
G_7-  -1.00  1.00 -0.71  0.71
G_8-   1.00 -1.00  0.71 -0.71

     the symmetry operations in each class and the name of the first element:

     E             1
          identity                                               
     -E           -1
          identity E                                             
     C4            4
           90 deg rotation - cart. axis [0,0,1]                  
     -C4          -4
           90 deg rotation - cart. axis [0,0,1] E                
     C2            2
          180 deg rotation - cart. axis [0,0,1]                  
     -C2          -2
          180 deg rotation - cart. axis [0,0,1] E                
     C4^3          3
           90 deg rotation - cart. axis [0,0,-1]                 
     -C4^3        -3
           90 deg rotation - cart. axis [0,0,-1] E               
     i             5
          inversion                                              
     -i           -5
          inversion E                                            
     S4^3          8
          inv.  90 deg rotation - cart. axis [0,0,1]             
     -S4^3        -8
          inv.  90 deg rotation - cart. axis [0,0,1] E           
     s_h           6
          inv. 180 deg rotation - cart. axis [0,0,1]             
     -s_h         -6
          inv. 180 deg rotation - cart. axis [0,0,1] E           
     S4            7
          inv.  90 deg rotation - cart. axis [0,0,-1]            
     -S4          -7
          inv.  90 deg rotation - cart. axis [0,0,-1] E          

   Cartesian axes

     site n.     atom                  positions (alat units)
         1           Fe  tau(   1) = (   0.0000000   0.0000000   0.0000000  )
         2           Pt  tau(   2) = (   0.5000000   0.5000000   0.6925927  )

   Crystallographic axes

     site n.     atom                  positions (cryst. coord.)
         1           Fe  tau(   1) = (  0.0000000  0.0000000  0.0000000  )
         2           Pt  tau(   2) = (  0.5000000  0.5000000  0.5000000  )

     number of k points=    45  Methfessel-Paxton smearing, width (Ry)=  0.0100
                       cart. coord. in units 2pi/alat
        k(    1) = (   0.0555556   0.0555556   0.0601604), wk =   0.0164609
        k(    2) = (   0.0555556   0.0555556   0.1804812), wk =   0.0164609
        k(    3) = (   0.0555556   0.0555556   0.3008021), wk =   0.0164609
        k(    4) = (   0.0555556   0.1666667   0.0601604), wk =   0.0329218
        k(    5) = (   0.0555556   0.1666667   0.1804812), wk =   0.0329218
        k(    6) = (   0.0555556   0.1666667   0.3008021), wk =   0.0329218
        k(    7) = (   0.0555556   0.2777778   0.0601604), wk =   0.0329218
        k(    8) = (   0.0555556   0.2777778   0.1804812), wk =   0.0329218
        k(    9) = (   0.0555556   0.2777778   0.3008021), wk =   0.0329218
        k(   10) = (   0.0555556   0.3888889   0.0601604), wk =   0.0329218
        k(   11) = (   0.0555556   0.3888889   0.1804812), wk =   0.0329218
        k(   12) = (   0.0555556   0.3888889   0.3008021), wk =   0.0329218
        k(   13) = (   0.0555556  -0.5000000   0.0601604), wk =   0.0164609
        k(   14) = (   0.0555556  -0.5000000   0.1804812), wk =   0.0164609
        k(   15) = (   0.0555556  -0.5000000   0.3008021), wk =   0.0164609
        k(   16) = (   0.1666667   0.1666667   0.0601604), wk =   0.0164609
        k(   17) = (   0.1666667   0.1666667   0.1804812), wk =   0.0164609
        k(   18) = (   0.1666667   0.1666667   0.3008021), wk =   0.0164609
        k(   19) = (   0.1666667   0.2777778   0.0601604), wk =   0.0329218
        k(   20) = (   0.1666667   0.2777778   0.1804812), wk =   0.0329218
        k(   21) = (   0.1666667   0.2777778   0.3008021), wk =   0.0329218
        k(   22) = (   0.1666667   0.3888889   0.0601604), wk =   0.0329218
        k(   23) = (   0.1666667   0.3888889   0.1804812), wk =   0.0329218
        k(   24) = (   0.1666667   0.3888889   0.3008021), wk =   0.0329218
        k(   25) = (   0.1666667  -0.5000000   0.0601604), wk =   0.0164609
        k(   26) = (   0.1666667  -0.5000000   0.1804812), wk =   0.0164609
        k(   27) = (   0.1666667  -0.5000000   0.3008021), wk =   0.0164609
        k(   28) = (   0.2777778   0.2777778   0.0601604), wk =   0.0164609
        k(   29) = (   0.2777778   0.2777778   0.1804812), wk =   0.0164609
        k(   30) = (   0.2777778   0.2777778   0.3008021), wk =   0.0164609
        k(   31) = (   0.2777778   0.3888889   0.0601604), wk =   0.0329218
        k(   32) = (   0.2777778   0.3888889   0.1804812), wk =   0.0329218
        k(   33) = (   0.2777778   0.3888889   0.3008021), wk =   0.0329218
        k(   34) = (   0.2777778  -0.5000000   0.0601604), wk =   0.0164609
        k(   35) = (   0.2777778  -0.5000000   0.1804812), wk =   0.0164609
        k(   36) = (   0.2777778  -0.5000000   0.3008021), wk =   0.0164609
        k(   37) = (   0.3888889   0.3888889   0.0601604), wk =   0.0164609
        k(   38) = (   0.3888889   0.3888889   0.1804812), wk =   0.0164609
        k(   39) = (   0.3888889   0.3888889   0.3008021), wk =   0.0164609
        k(   40) = (   0.3888889  -0.5000000   0.0601604), wk =   0.0164609
        k(   41) = (   0.3888889  -0.5000000   0.1804812), wk =   0.0164609
        k(   42) = (   0.3888889  -0.5000000   0.3008021), wk =   0.0164609
        k(   43) = (  -0.5000000  -0.5000000   0.0601604), wk =   0.0041152
        k(   44) = (  -0.5000000  -0.5000000   0.1804812), wk =   0.0041152
        k(   45) = (  -0.5000000  -0.5000000   0.3008021), wk =   0.0041152

                       cryst. coord.
        k(    1) = (   0.0555556   0.0555556   0.0833333), wk =   0.0164609
        k(    2) = (   0.0555556   0.0555556   0.2500000), wk =   0.0164609
        k(    3) = (   0.0555556   0.0555556   0.4166667), wk =   0.0164609
        k(    4) = (   0.0555556   0.1666667   0.0833333), wk =   0.0329218
        k(    5) = (   0.0555556   0.1666667   0.2500000), wk =   0.0329218
        k(    6) = (   0.0555556   0.1666667   0.4166667), wk =   0.0329218
        k(    7) = (   0.0555556   0.2777778   0.0833333), wk =   0.0329218
        k(    8) = (   0.0555556   0.2777778   0.2500000), wk =   0.0329218
        k(    9) = (   0.0555556   0.2777778   0.4166667), wk =   0.0329218
        k(   10) = (   0.0555556   0.3888889   0.0833333), wk =   0.0329218
        k(   11) = (   0.0555556   0.3888889   0.2500000), wk =   0.0329218
        k(   12) = (   0.0555556   0.3888889   0.4166667), wk =   0.0329218
        k(   13) = (   0.0555556  -0.5000000   0.0833333), wk =   0.0164609
        k(   14) = (   0.0555556  -0.5000000   0.2500000), wk =   0.0164609
        k(   15) = (   0.0555556  -0.5000000   0.4166667), wk =   0.0164609
        k(   16) = (   0.1666667   0.1666667   0.0833333), wk =   0.0164609
        k(   17) = (   0.1666667   0.1666667   0.2500000), wk =   0.0164609
        k(   18) = (   0.1666667   0.1666667   0.4166667), wk =   0.0164609
        k(   19) = (   0.1666667   0.2777778   0.0833333), wk =   0.0329218
        k(   20) = (   0.1666667   0.2777778   0.2500000), wk =   0.0329218
        k(   21) = (   0.1666667   0.2777778   0.4166667), wk =   0.0329218
        k(   22) = (   0.1666667   0.3888889   0.0833333), wk =   0.0329218
        k(   23) = (   0.1666667   0.3888889   0.2500000), wk =   0.0329218
        k(   24) = (   0.1666667   0.3888889   0.4166667), wk =   0.0329218
        k(   25) = (   0.1666667  -0.5000000   0.0833333), wk =   0.0164609
        k(   26) = (   0.1666667  -0.5000000   0.2500000), wk =   0.0164609
        k(   27) = (   0.1666667  -0.5000000   0.4166667), wk =   0.0164609
        k(   28) = (   0.2777778   0.2777778   0.0833333), wk =   0.0164609
        k(   29) = (   0.2777778   0.2777778   0.2500000), wk =   0.0164609
        k(   30) = (   0.2777778   0.2777778   0.4166667), wk =   0.0164609
        k(   31) = (   0.2777778   0.3888889   0.0833333), wk =   0.0329218
        k(   32) = (   0.2777778   0.3888889   0.2500000), wk =   0.0329218
        k(   33) = (   0.2777778   0.3888889   0.4166667), wk =   0.0329218
        k(   34) = (   0.2777778  -0.5000000   0.0833333), wk =   0.0164609
        k(   35) = (   0.2777778  -0.5000000   0.2500000), wk =   0.0164609
        k(   36) = (   0.2777778  -0.5000000   0.4166667), wk =   0.0164609
        k(   37) = (   0.3888889   0.3888889   0.0833333), wk =   0.0164609
        k(   38) = (   0.3888889   0.3888889   0.2500000), wk =   0.0164609
        k(   39) = (   0.3888889   0.3888889   0.4166667), wk =   0.0164609
        k(   40) = (   0.3888889  -0.5000000   0.0833333), wk =   0.0164609
        k(   41) = (   0.3888889  -0.5000000   0.2500000), wk =   0.0164609
        k(   42) = (   0.3888889  -0.5000000   0.4166667), wk =   0.0164609
        k(   43) = (  -0.5000000  -0.5000000   0.0833333), wk =   0.0041152
        k(   44) = (  -0.5000000  -0.5000000   0.2500000), wk =   0.0041152
        k(   45) = (  -0.5000000  -0.5000000   0.4166667), wk =   0.0041152

     Dense  grid:    70151 G-vectors     FFT dimensions: (  45,  45,  64)

     Smooth grid:    13173 G-vectors     FFT dimensions: (  27,  27,  40)

     Dynamical RAM for                 wfc:       0.43 MB

     Dynamical RAM for     wfc (w. buffer):       6.81 MB

     Dynamical RAM for           str. fact:       0.54 MB

     Dynamical RAM for           local pot:       0.00 MB

     Dynamical RAM for          nlocal pot:       0.43 MB

     Dynamical RAM for                qrad:      11.75 MB

     Dynamical RAM for          rho,v,vnew:       6.18 MB

     Dynamical RAM for           G-vectors:       1.03 MB

     Dynamical RAM for          h,s,v(r/c):       0.21 MB

     Dynamical RAM for          <psi|beta>:       0.07 MB

     Dynamical RAM for                 psi:       0.85 MB

     Dynamical RAM for                hpsi:       0.85 MB

     Dynamical RAM for                spsi:       0.85 MB

     Dynamical RAM for      wfcinit/wfcrot:       0.87 MB

     Dynamical RAM for           addusdens:      55.48 MB

     Estimated static dynamical RAM per process >      29.50 MB

     Estimated max dynamical RAM per process >      84.99 MB

     Estimated total dynamical RAM >    1019.85 MB

     Check: negative core charge=   -0.000005
     Generating pointlists ...
     new r_m :   0.4083 (alat units)  2.1049 (a.u.) for type    1
     new r_m :   0.4083 (alat units)  2.1049 (a.u.) for type    2
     Message from routine read_rhog:
     some spin components not found
 
 -----------
Spin angles Theta, Phi (degree) =   0.0000  0.0000
 -----------

     The potential is recalculated from file :
     ./work/pwscf.save/charge-density

     Starting wfcs are   44 randomized atomic wfcs

     Band Structure Calculation
     Davidson diagonalization with overlap

     Computing kpt #:     1  of    15 on this pool
     total cpu time spent up to now is        2.9 secs

     Computing kpt #:     2  of    15 on this pool
     total cpu time spent up to now is        3.6 secs

     Computing kpt #:     3  of    15 on this pool
     total cpu time spent up to now is        4.5 secs

     Computing kpt #:     4  of    15 on this pool
     total cpu time spent up to now is        5.2 secs

     Computing kpt #:     5  of    15 on this pool
     total cpu time spent up to now is        5.9 secs

     Computing kpt #:     6  of    15 on this pool
     total cpu time spent up to now is        6.6 secs

     Computing kpt #:     7  of    15 on this pool
     total cpu time spent up to now is        7.2 secs

     Computing kpt #:     8  of    15 on this pool
     total cpu time spent up to now is        7.8 secs

     Computing kpt #:     9  of    15 on this pool
     total cpu time spent up to now is        8.6 secs

     Computing kpt #:    10  of    15 on this pool
     total cpu time spent up to now is        9.3 secs

     Computing kpt #:    11  of    15 on this pool
     total cpu time spent up to now is       10.1 secs

     Computing kpt #:    12  of    15 on this pool
     total cpu time spent up to now is       10.8 secs

     Computing kpt #:    13  of    15 on this pool
     total cpu time spent up to now is       11.4 secs

     Computing kpt #:    14  of    15 on this pool
     total cpu time spent up to now is       12.1 secs

     Computing kpt #:    15  of    15 on this pool
     total cpu time spent up to now is       12.8 secs

     ethr =  3.85E-11,  avg # of iterations = 53.4

     total cpu time spent up to now is       12.8 secs

     End of band structure calculation

------
 eband, Ef (eV) =   -110.371539213606        16.9965508304381     
------


          k = 0.0556 0.0556 0.0602 (  1648 PWs)   bands (ev):

   -71.9648 -68.3804 -38.5350 -38.3286 -37.3718 -34.7721 -34.4124 -33.9077
     7.7430   7.8696  10.8333  10.9973  11.3709  11.3741  13.5064  13.7695
    13.9784  14.2742  14.8093  15.0197  15.1892  15.7914  16.0308  16.3544
    16.4691  16.7362  17.5124  17.7628  18.6259  18.6344  19.2303  19.8932
    26.7294  27.4731

     occupation numbers 
     1.0000   1.0000   1.0000   1.0000   1.0000   1.0000   1.0000   1.0000
     1.0000   1.0000   1.0000   1.0000   1.0000   1.0000   1.0000   1.0000
     1.0000   1.0000   1.0000   1.0000   1.0000   1.0000   1.0000   1.0000
     1.0000   1.0105  -0.0000  -0.0000  -0.0000  -0.0000  -0.0000  -0.0000
    -0.0000  -0.0000

          k = 0.0556 0.0556 0.1805 (  1652 PWs)   bands (ev):

   -71.9648 -68.3804 -38.5351 -38.3298 -37.3720 -34.7723 -34.4141 -33.9079
     8.3647   8.4823  11.0685  11.1554  11.4885  11.5484  13.5904  13.8381
    14.0760  14.2698  14.8749  14.9222  15.0155  15.2875  15.7635  16.0199
    16.4079  16.4550  16.5010  17.3032  17.4917  18.1422  18.4182  18.8191
    29.1865  29.3923

     occupation numbers 
     1.0000   1.0000   1.0000   1.0000   1.0000   1.0000   1.0000   1.0000
     1.0000   1.0000   1.0000   1.0000   1.0000   1.0000   1.0000   1.0000
     1.0000   1.0000   1.0000   1.0000   1.0000   1.0000   1.0000   1.0000
     1.0000   1.0000   1.0000  -0.0032  -0.0000  -0.0000  -0.0000  -0.0000
    -0.0000  -0.0000

          k = 0.0556 0.0556 0.3008 (  1665 PWs)   bands (ev):

   -71.9648 -68.3803 -38.5353 -38.3313 -37.3722 -34.7727 -34.4161 -33.9082
     9.2746   9.3598  11.2587  11.3446  11.6140  11.6681  13.4126  13.8395
    13.9364  14.3283  14.5220  14.5859  14.9616  15.1328  15.2867  15.4500
    15.7646  15.8957  16.4150  16.5285  17.3354  17.6017  17.8648  18.5511
    31.1495  31.5174

     occupation numbers 
     1.0000   1.0000   1.0000   1.0000   1.0000   1.0000   1.0000   1.0000
     1.0000   1.0000   1.0000   1.0000   1.0000   1.0000   1.0000   1.0000
     1.0000   1.0000   1.0000   1.0000   1.0000   1.0000   1.0000   1.0000
     1.0000   1.0000   1.0000   1.0000  -0.0012  -0.0000  -0.0000  -0.0000
    -0.0000  -0.0000

          k = 0.0556 0.1667 0.0602 (  1641 PWs)   bands (ev):

   -71.9629 -68.3783 -38.5435 -38.3275 -37.3813 -34.7824 -34.4108 -33.9189
     8.3440   8.4760  11.1110  11.4328  11.5761  11.8829  13.3137  13.8702
    13.9178  14.0926  14.7448  14.7914  14.9136  15.2298  15.7606  15.9770
    16.4032  16.5306  16.9093  17.6245  18.2724  18.6027  20.7767  21.5278
    25.5512  26.0542

     occupation numbers 
     1.0000   1.0000   1.0000   1.0000   1.0000   1.0000   1.0000   1.0000
     1.0000   1.0000   1.0000   1.0000   1.0000   1.0000   1.0000   1.0000
     1.0000   1.0000   1.0000   1.0000   1.0000   1.0000   1.0000   1.0000
     1.0000   1.0000   0.9376  -0.0000  -0.0000  -0.0000  -0.0000  -0.0000
    -0.0000  -0.0000

          k = 0.0556 0.1667 0.1805 (  1649 PWs)   bands (ev):

   -71.9629 -68.3782 -38.5437 -38.3284 -37.3815 -34.7826 -34.4122 -33.9191
     8.9237   9.0587  11.2788  11.6282  11.6866  12.0366  13.3205  13.7964
    13.9086  14.1126  14.2476  14.7498  14.8692  15.1477  15.5665  15.8348
    16.2162  16.3654  16.4831  17.5031  17.9926  18.4554  18.6666  19.7431
    26.7141  27.2313

     occupation numbers 
     1.0000   1.0000   1.0000   1.0000   1.0000   1.0000   1.0000   1.0000
     1.0000   1.0000   1.0000   1.0000   1.0000   1.0000   1.0000   1.0000
     1.0000   1.0000   1.0000   1.0000   1.0000   1.0000   1.0000   1.0000
     1.0000   1.0000   1.0000  -0.0000  -0.0000  -0.0000  -0.0000  -0.0000
    -0.0000  -0.0000

          k = 0.0556 0.1667 0.3008 (  1658 PWs)   bands (ev):

   -71.9629 -68.3782 -38.5437 -38.3296 -37.3816 -34.7828 -34.4139 -33.9192
     9.7855   9.9128  11.3575  11.6909  11.8077  12.0697  13.2329  13.5738
    13.7409  14.1261  14.2540  14.5857  14.7470  15.0619  15.3552  15.6247
    15.8539  16.1502  16.3352  16.7905  17.5162  17.9165  18.2175  18.7208
    28.3974  28.9185

     occupation numbers 
     1.0000   1.0000   1.0000   1.0000   1.0000   1.0000   1.0000   1.0000
     1.0000   1.0000   1.0000   1.0000   1.0000   1.0000   1.0000   1.0000
     1.0000   1.0000   1.0000   1.0000   1.0000   1.0000   1.0000   1.0000
     1.0000   1.0000   1.0000   1.0270  -0.0000  -0.0000  -0.0000  -0.0000
    -0.0000  -0.0000

          k = 0.0556 0.2778 0.0602 (  1641 PWs)   bands (ev):

   -71.9601 -68.3750 -38.5572 -38.3257 -37.3956 -34.7991 -34.4085 -33.9355
     9.3681   9.5119  11.5151  11.9165  12.1451  12.4976  13.1624  13.2583
    13.9037  14.0219  14.1930  14.6826  14.9819  15.2595  15.2943  15.6203
    16.2442  16.4352  16.5253  17.8386  17.9387  18.3697  22.5216  22.8614
    23.2443  23.6739

     occupation numbers 
     1.0000   1.0000   1.0000   1.0000   1.0000   1.0000   1.0000   1.0000
     1.0000   1.0000   1.0000   1.0000   1.0000   1.0000   1.0000   1.0000
     1.0000   1.0000   1.0000   1.0000   1.0000   1.0000   1.0000   1.0000
     1.0000   1.0000   1.0000  -0.0000  -0.0000  -0.0000  -0.0000  -0.0000
    -0.0000  -0.0000

          k = 0.0556 0.2778 0.1805 (  1642 PWs)   bands (ev):

   -71.9601 -68.3749 -38.5571 -38.3263 -37.3955 -34.7990 -34.4093 -33.9354
     9.7632   9.9545  11.4702  11.8307  12.4271  12.7019  13.2600  13.3480
    13.7331  13.9224  14.1034  14.5952  14.8823  15.1431  15.3216  15.6177
    16.1324  16.4039  16.5357  17.6788  17.9861  18.5483  19.8045  20.8250
    23.8028  24.4763

     occupation numbers 
     1.0000   1.0000   1.0000   1.0000   1.0000   1.0000   1.0000   1.0000
     1.0000   1.0000   1.0000   1.0000   1.0000   1.0000   1.0000   1.0000
     1.0000   1.0000   1.0000   1.0000   1.0000   1.0000   1.0000   1.0000
     1.0000   1.0000   1.0000  -0.0000  -0.0000  -0.0000  -0.0000  -0.0000
    -0.0000  -0.0000

          k = 0.0556 0.2778 0.3008 (  1643 PWs)   bands (ev):

   -71.9600 -68.3749 -38.5569 -38.3268 -37.3954 -34.7989 -34.4102 -33.9352
    10.3121  10.5743  11.1781  11.5243  12.8850  13.0215  13.2761  13.5283
    13.8387  13.9904  14.0914  14.2947  14.8182  14.9737  15.3372  15.6375
    16.0917  16.2850  16.5244  17.4340  17.7653  18.2951  18.4489  19.0966
    25.3461  25.9505

     occupation numbers 
     1.0000   1.0000   1.0000   1.0000   1.0000   1.0000   1.0000   1.0000
     1.0000   1.0000   1.0000   1.0000   1.0000   1.0000   1.0000   1.0000
     1.0000   1.0000   1.0000   1.0000   1.0000   1.0000   1.0000   1.0000
     1.0000   1.0000   1.0000  -0.0000  -0.0000  -0.0000  -0.0000  -0.0000
    -0.0000  -0.0000

          k = 0.0556 0.3889 0.0602 (  1643 PWs)   bands (ev):

   -71.9576 -68.3721 -38.5696 -38.3240 -37.4079 -34.8145 -34.4062 -33.9494
    10.4461  10.6067  11.8785  12.1160  12.4433  12.5439  12.9905  13.5015
    13.6629  13.7740  14.2859  14.5984  14.7701  15.0121  15.2886  15.9485
    16.2290  16.3798  16.5085  17.7316  18.0571  18.4541  20.3581  21.1079
    24.5712  25.3292

     occupation numbers 
     1.0000   1.0000   1.0000   1.0000   1.0000   1.0000   1.0000   1.0000
     1.0000   1.0000   1.0000   1.0000   1.0000   1.0000   1.0000   1.0000
     1.0000   1.0000   1.0000   1.0000   1.0000   1.0000   1.0000   1.0000
     1.0000   1.0000   1.0000  -0.0000  -0.0000  -0.0000  -0.0000  -0.0000
    -0.0000  -0.0000

          k = 0.0556 0.3889 0.1805 (  1646 PWs)   bands (ev):

   -71.9576 -68.3721 -38.5694 -38.3244 -37.4077 -34.8142 -34.4068 -33.9491
    10.4613  10.7516  11.3110  11.6658  12.7199  13.0274  13.4963  13.7017
    13.9545  14.0367  14.1943  14.2853  14.8349  15.1487  15.6504  15.9881
    16.2269  16.4084  16.5024  18.0128  18.2332  18.4447  19.9482  20.7211
    22.4693  23.3867

     occupation numbers 
     1.0000   1.0000   1.0000   1.0000   1.0000   1.0000   1.0000   1.0000
     1.0000   1.0000   1.0000   1.0000   1.0000   1.0000   1.0000   1.0000
     1.0000   1.0000   1.0000   1.0000   1.0000   1.0000   1.0000   1.0000
     1.0000   1.0000   1.0000  -0.0000  -0.0000  -0.0000  -0.0000  -0.0000
    -0.0000  -0.0000

          k = 0.0556 0.3889 0.3008 (  1639 PWs)   bands (ev):

   -71.9576 -68.3721 -38.5690 -38.3246 -37.4073 -34.8139 -34.4072 -33.9486
    10.5442  10.8076  10.9701  11.2268  13.1057  13.4494  13.5863  13.8592
    14.1064  14.1951  14.6223  14.7437  14.9574  15.2600  15.7573  16.0312
    16.2576  16.5408  16.6326  17.8794  18.0598  18.4889  18.5983  19.2933
    22.8682  23.6315

     occupation numbers 
     1.0000   1.0000   1.0000   1.0000   1.0000   1.0000   1.0000   1.0000
     1.0000   1.0000   1.0000   1.0000   1.0000   1.0000   1.0000   1.0000
     1.0000   1.0000   1.0000   1.0000   1.0000   1.0000   1.0000   1.0000
     1.0000   1.0000   1.0005  -0.0000  -0.0000  -0.0000  -0.0000  -0.0000
    -0.0000  -0.0000

          k = 0.0556-0.5000 0.0602 (  1636 PWs)   bands (ev):

   -71.9565 -68.3709 -38.5744 -38.3234 -37.4125 -34.8206 -34.4054 -33.9545
    10.9710  11.1274  11.8108  12.0704  12.6158  12.7323  13.0548  13.3899
    13.5421  13.7075  14.3636  14.4322  14.7354  15.0726  15.3019  15.7714
    16.3212  16.3508  17.1702  17.7334  17.8618  19.1112  19.4538  19.5373
    26.1194  26.5565

     occupation numbers 
     1.0000   1.0000   1.0000   1.0000   1.0000   1.0000   1.0000   1.0000
     1.0000   1.0000   1.0000   1.0000   1.0000   1.0000   1.0000   1.0000
     1.0000   1.0000   1.0000   1.0000   1.0000   1.0000   1.0000   1.0000
     1.0000   1.0000  -0.0351  -0.0000  -0.0000  -0.0000  -0.0000  -0.0000
    -0.0000  -0.0000

          k = 0.0556-0.5000 0.1805 (  1640 PWs)   bands (ev):

   -71.9566 -68.3709 -38.5742 -38.3237 -37.4122 -34.8203 -34.4058 -33.9542
    10.8063  11.0033  11.2093  11.4172  12.8589  13.1589  13.4712  13.9108
    13.9228  14.0622  14.2099  14.3757  15.0998  15.2991  15.7286  16.1576
    16.2620  16.4477  17.1652  18.1621  18.2701  18.7201  19.1467  19.3309
    23.3346  24.1396

     occupation numbers 
     1.0000   1.0000   1.0000   1.0000   1.0000   1.0000   1.0000   1.0000
     1.0000   1.0000   1.0000   1.0000   1.0000   1.0000   1.0000   1.0000
     1.0000   1.0000   1.0000   1.0000   1.0000   1.0000   1.0000   1.0000
     1.0000   1.0000  -0.0354  -0.0000  -0.0000  -0.0000  -0.0000  -0.0000
    -0.0000  -0.0000

          k = 0.0556-0.5000 0.3008 (  1638 PWs)   bands (ev):

   -71.9566 -68.3709 -38.5739 -38.3237 -37.4120 -34.8200 -34.4060 -33.9538
    10.6065  10.6585  10.9994  11.1667  13.0806  13.4070  13.5251  13.8812
    14.0447  14.1920  14.8986  15.2020  15.3420  15.8513  16.2637  16.2973
    16.5238  16.6418  17.2011  17.6702  18.1192  18.5736  18.8558  18.8856
    21.8218  22.7590

     occupation numbers 
     1.0000   1.0000   1.0000   1.0000   1.0000   1.0000   1.0000   1.0000
     1.0000   1.0000   1.0000   1.0000   1.0000   1.0000   1.0000   1.0000
     1.0000   1.0000   1.0000   1.0000   1.0000   1.0000   1.0000   1.0000
     1.0000   1.0007  -0.0275  -0.0000  -0.0000  -0.0000  -0.0000  -0.0000
    -0.0000  -0.0000

          k = 0.1667 0.1667 0.0602 (  1646 PWs)   bands (ev):

   -71.9611 -68.3761 -38.5520 -38.3263 -37.3911 -34.7924 -34.4092 -33.9306
     8.9302   9.0724  11.4703  11.7358  11.9834  12.1278  13.0729  13.7783
    13.8839  14.0038  14.2735  14.5495  14.6327  15.2390  15.3731  15.6201
    16.4557  16.6108  16.8487  17.7054  18.1085  18.6348  21.7940  22.4750
    26.1078  26.3416

     occupation numbers 
     1.0000   1.0000   1.0000   1.0000   1.0000   1.0000   1.0000   1.0000
     1.0000   1.0000   1.0000   1.0000   1.0000   1.0000   1.0000   1.0000
     1.0000   1.0000   1.0000   1.0000   1.0000   1.0000   1.0000   1.0000
     1.0000   1.0002   1.0319  -0.0000  -0.0000  -0.0000  -0.0000  -0.0000
    -0.0000  -0.0000

          k = 0.1667 0.1667 0.1805 (  1650 PWs)   bands (ev):

   -71.9611 -68.3761 -38.5520 -38.3270 -37.3912 -34.7925 -34.4104 -33.9306
     9.4961   9.6467  11.7187  11.8418  12.1224  12.2081  13.1136  13.4161
    13.7186  13.8607  14.1750  14.4790  14.6426  15.1405  15.3341  15.7716
    16.0032  16.5552  16.6186  17.7181  18.1100  18.1903  19.4399  20.5262
    27.2481  27.5759

     occupation numbers 
     1.0000   1.0000   1.0000   1.0000   1.0000   1.0000   1.0000   1.0000
     1.0000   1.0000   1.0000   1.0000   1.0000   1.0000   1.0000   1.0000
     1.0000   1.0000   1.0000   1.0000   1.0000   1.0000   1.0000   1.0000
     1.0000   1.0000   1.0003  -0.0000  -0.0000  -0.0000  -0.0000  -0.0000
    -0.0000  -0.0000

          k = 0.1667 0.1667 0.3008 (  1650 PWs)   bands (ev):

   -71.9611 -68.3761 -38.5520 -38.3278 -37.3911 -34.7925 -34.4115 -33.9305
    10.3811  10.5356  11.6511  11.9017  11.9912  12.2927  13.0806  13.2141
    13.6164  14.0502  14.1780  14.4146  14.6343  14.9858  15.0941  15.3473
    15.7040  16.4053  16.7478  17.5032  17.5973  17.6941  18.5382  19.2985
    28.7006  29.1257

     occupation numbers 
     1.0000   1.0000   1.0000   1.0000   1.0000   1.0000   1.0000   1.0000
     1.0000   1.0000   1.0000   1.0000   1.0000   1.0000   1.0000   1.0000
     1.0000   1.0000   1.0000   1.0000   1.0000   1.0000   1.0000   1.0000
     1.0000   1.0000   1.0134  -0.0000  -0.0000  -0.0000  -0.0000  -0.0000
    -0.0000  -0.0000

          k = 0.1667 0.2778 0.0602 (  1644 PWs)   bands (ev):

   -71.9582 -68.3728 -38.5652 -38.3242 -37.4056 -34.8082 -34.4065 -33.9475
     9.8951  10.0672  11.8173  12.1815  12.3235  12.5663  13.0092  13.1613
    13.3514  13.8634  14.1825  14.5192  14.8313  14.9843  15.1736  15.5726
    16.3525  16.7912  16.9687  17.7488  18.0207  18.5278  23.2642  23.3884
    23.9820  24.1327

     occupation numbers 
     1.0000   1.0000   1.0000   1.0000   1.0000   1.0000   1.0000   1.0000
     1.0000   1.0000   1.0000   1.0000   1.0000   1.0000   1.0000   1.0000
     1.0000   1.0000   1.0000   1.0000   1.0000   1.0000   1.0000   1.0000
     1.0000   1.0272   0.6690  -0.0000  -0.0000  -0.0000  -0.0000  -0.0000
    -0.0000  -0.0000

          k = 0.1667 0.2778 0.1805 (  1650 PWs)   bands (ev):

   -71.9583 -68.3728 -38.5651 -38.3250 -37.4055 -34.8082 -34.4076 -33.9474
    10.3324  10.5386  11.9276  12.1984  12.4387  12.5513  13.0682  13.2353
    13.3635  13.7087  13.9816  14.4603  14.7211  14.8194  15.2424  15.8995
    16.1182  16.6172  16.9675  17.6431  18.2390  18.3261  20.5404  21.4709
    24.3785  25.0391

     occupation numbers 
     1.0000   1.0000   1.0000   1.0000   1.0000   1.0000   1.0000   1.0000
     1.0000   1.0000   1.0000   1.0000   1.0000   1.0000   1.0000   1.0000
     1.0000   1.0000   1.0000   1.0000   1.0000   1.0000   1.0000   1.0000
     1.0000   1.0003   0.6763  -0.0000  -0.0000  -0.0000  -0.0000  -0.0000
    -0.0000  -0.0000

          k = 0.1667 0.2778 0.3008 (  1640 PWs)   bands (ev):

   -71.9582 -68.3728 -38.5649 -38.3253 -37.4053 -34.8081 -34.4082 -33.9471
    10.9613  11.2309  11.5717  11.8860  12.6694  12.9042  13.1115  13.3078
    13.6488  13.8152  14.0467  14.2890  14.4812  14.6985  15.1653  15.5606
    15.8553  16.8437  17.0019  17.5046  17.8825  18.4307  18.9354  19.8867
    25.8855  26.4810

     occupation numbers 
     1.0000   1.0000   1.0000   1.0000   1.0000   1.0000   1.0000   1.0000
     1.0000   1.0000   1.0000   1.0000   1.0000   1.0000   1.0000   1.0000
     1.0000   1.0000   1.0000   1.0000   1.0000   1.0000   1.0000   1.0000
     1.0000   1.0336   0.4664  -0.0000  -0.0000  -0.0000  -0.0000  -0.0000
    -0.0000  -0.0000

          k = 0.1667 0.3889 0.0602 (  1644 PWs)   bands (ev):

   -71.9557 -68.3700 -38.5771 -38.3226 -37.4178 -34.8228 -34.4044 -33.9615
    10.8799  11.1157  11.9610  12.0562  12.4172  12.5028  12.7771  13.0387
    13.2004  13.8247  14.0789  14.7097  14.9026  15.1255  15.4607  16.1529
    16.4368  16.9238  17.1536  17.8683  18.2399  18.4570  20.8098  21.5502
    24.9413  25.5650

     occupation numbers 
     1.0000   1.0000   1.0000   1.0000   1.0000   1.0000   1.0000   1.0000
     1.0000   1.0000   1.0000   1.0000   1.0000   1.0000   1.0000   1.0000
     1.0000   1.0000   1.0000   1.0000   1.0000   1.0000   1.0000   1.0000
     1.0000   0.8886  -0.0346  -0.0000  -0.0000  -0.0000  -0.0000  -0.0000
    -0.0000  -0.0000

          k = 0.1667 0.3889 0.1805 (  1634 PWs)   bands (ev):

   -71.9557 -68.3699 -38.5768 -38.3229 -37.4175 -34.8225 -34.4048 -33.9611
    10.9495  11.2637  11.6903  12.0599  12.4354  12.7227  13.0510  13.3529
    13.5090  13.9074  13.9765  14.4088  14.5888  15.2541  15.8106  16.2942
    16.4924  16.7904  16.9669  18.0375  18.4518  18.5502  20.8673  21.5952
    22.6333  23.4507

     occupation numbers 
     1.0000   1.0000   1.0000   1.0000   1.0000   1.0000   1.0000   1.0000
     1.0000   1.0000   1.0000   1.0000   1.0000   1.0000   1.0000   1.0000
     1.0000   1.0000   1.0000   1.0000   1.0000   1.0000   1.0000   1.0000
     1.0000   1.0270   0.6795  -0.0000  -0.0000  -0.0000  -0.0000  -0.0000
    -0.0000  -0.0000

          k = 0.1667 0.3889 0.3008 (  1641 PWs)   bands (ev):

   -71.9557 -68.3700 -38.5768 -38.3233 -37.4174 -34.8225 -34.4055 -33.9610
    11.0042  11.2776  11.4483  11.8847  12.7212  13.0998  13.3194  13.6327
    13.8945  14.0294  14.2313  14.3346  14.4389  15.4205  15.6711  15.9398
    16.2098  16.9610  17.5552  17.7738  18.3127  19.1011  19.3828  20.3427
    23.2282  23.9161

     occupation numbers 
     1.0000   1.0000   1.0000   1.0000   1.0000   1.0000   1.0000   1.0000
     1.0000   1.0000   1.0000   1.0000   1.0000   1.0000   1.0000   1.0000
     1.0000   1.0000   1.0000   1.0000   1.0000   1.0000   1.0000   1.0000
     1.0000   0.7130  -0.0000  -0.0000  -0.0000  -0.0000  -0.0000  -0.0000
    -0.0000  -0.0000

          k = 0.1667-0.5000 0.0602 (  1644 PWs)   bands (ev):

   -71.9547 -68.3688 -38.5819 -38.3220 -37.4225 -34.8287 -34.4035 -33.9668
    11.4573  11.5671  11.8647  12.1010  12.1618  12.3888  12.7270  12.9473
    13.1972  13.7962  14.0540  14.8498  14.9345  15.3269  15.5293  16.0777
    17.1096  17.1412  17.6184  17.9694  18.1144  19.1978  19.5685  19.5990
    26.5342  26.8068

     occupation numbers 
     1.0000   1.0000   1.0000   1.0000   1.0000   1.0000   1.0000   1.0000
     1.0000   1.0000   1.0000   1.0000   1.0000   1.0000   1.0000   1.0000
     1.0000   1.0000   1.0000   1.0000   1.0000   1.0000   1.0000   1.0000
     0.0025  -0.0305  -0.0000  -0.0000  -0.0000  -0.0000  -0.0000  -0.0000
    -0.0000  -0.0000

          k = 0.1667-0.5000 0.1805 (  1638 PWs)   bands (ev):

   -71.9547 -68.3688 -38.5816 -38.3222 -37.4222 -34.8284 -34.4039 -33.9665
    11.1449  11.3818  11.6436  11.9899  12.4456  12.7606  12.9615  13.3560
    13.6678  13.9880  14.0384  14.3544  14.5474  15.7152  15.8398  16.4430
    16.6233  16.9520  18.1273  18.3018  18.5726  19.1392  19.6898  19.7537
    23.6687  24.3175

     occupation numbers 
     1.0000   1.0000   1.0000   1.0000   1.0000   1.0000   1.0000   1.0000
     1.0000   1.0000   1.0000   1.0000   1.0000   1.0000   1.0000   1.0000
     1.0000   1.0000   1.0000   1.0000   1.0000   1.0000   1.0000   1.0000
     1.0004   0.7611  -0.0000  -0.0000  -0.0000  -0.0000  -0.0000  -0.0000
    -0.0000  -0.0000

          k = 0.1667-0.5000 0.3008 (  1632 PWs)   bands (ev):

   -71.9547 -68.3688 -38.5814 -38.3225 -37.4219 -34.8282 -34.4043 -33.9661
    10.9007  11.2003  11.4124  11.9806  12.6452  13.0090  13.2501  13.6405
    14.0596  14.1449  14.3247  14.4760  14.5249  15.7735  16.0596  16.2297
    16.5615  16.9535  17.9943  18.5620  18.8637  18.9748  20.0080  20.1233
    21.9264  22.7788

     occupation numbers 
     1.0000   1.0000   1.0000   1.0000   1.0000   1.0000   1.0000   1.0000
     1.0000   1.0000   1.0000   1.0000   1.0000   1.0000   1.0000   1.0000
     1.0000   1.0000   1.0000   1.0000   1.0000   1.0000   1.0000   1.0000
     1.0000   0.7537  -0.0000  -0.0000  -0.0000  -0.0000  -0.0000  -0.0000
    -0.0000  -0.0000

          k = 0.2778 0.2778 0.0602 (  1644 PWs)   bands (ev):

   -71.9554 -68.3696 -38.5777 -38.3221 -37.4202 -34.8228 -34.4037 -33.9648
    10.5765  10.8378  11.7819  11.9894  12.5432  12.6848  12.8966  13.0021
    13.4603  13.6182  14.1378  14.7301  14.9057  15.2137  15.3141  15.7212
    16.4183  17.2806  17.2915  17.6747  18.1946  18.6473  23.5661  24.0297
    24.4071  24.8370

     occupation numbers 
     1.0000   1.0000   1.0000   1.0000   1.0000   1.0000   1.0000   1.0000
     1.0000   1.0000   1.0000   1.0000   1.0000   1.0000   1.0000   1.0000
     1.0000   1.0000   1.0000   1.0000   1.0000   1.0000   1.0000   1.0000
     1.0000  -0.0060  -0.0045  -0.0000  -0.0000  -0.0000  -0.0000  -0.0000
    -0.0000  -0.0000

          k = 0.2778 0.2778 0.1805 (  1646 PWs)   bands (ev):

   -71.9554 -68.3696 -38.5776 -38.3228 -37.4200 -34.8228 -34.4047 -33.9647
    11.0271  11.2655  12.0839  12.1526  12.3968  12.6855  13.0514  13.0720
    13.3820  13.5307  13.7635  14.6006  14.7661  15.0968  15.2658  15.9230
    16.5485  16.9195  17.2902  17.7077  18.1523  18.7276  21.5450  22.3042
    24.7933  25.4234

     occupation numbers 
     1.0000   1.0000   1.0000   1.0000   1.0000   1.0000   1.0000   1.0000
     1.0000   1.0000   1.0000   1.0000   1.0000   1.0000   1.0000   1.0000
     1.0000   1.0000   1.0000   1.0000   1.0000   1.0000   1.0000   1.0000
     1.0000   0.9043  -0.0046  -0.0000  -0.0000  -0.0000  -0.0000  -0.0000
    -0.0000  -0.0000

          k = 0.2778 0.2778 0.3008 (  1642 PWs)   bands (ev):

   -71.9554 -68.3696 -38.5775 -38.3233 -37.4199 -34.8227 -34.4055 -33.9645
    11.5582  11.7623  12.1243  12.2753  12.4493  12.7176  13.1082  13.2522
    13.3541  13.5698  13.9841  14.4619  14.6050  14.8168  15.2420  15.5046
    15.9754  17.3461  17.5263  17.6009  17.7336  19.4447  19.5455  20.6971
    26.6072  26.9226

     occupation numbers 
     1.0000   1.0000   1.0000   1.0000   1.0000   1.0000   1.0000   1.0000
     1.0000   1.0000   1.0000   1.0000   1.0000   1.0000   1.0000   1.0000
     1.0000   1.0000   1.0000   1.0000   1.0000   1.0000   1.0000   1.0000
     1.0000  -0.0008  -0.0000  -0.0000  -0.0000  -0.0000  -0.0000  -0.0000
    -0.0000  -0.0000

          k = 0.2778 0.3889 0.0602 (  1631 PWs)   bands (ev):

   -71.9529 -68.3667 -38.5887 -38.3202 -37.4323 -34.8360 -34.4012 -33.9790
    10.9460  11.3077  11.6091  11.7101  12.2126  12.4604  12.5032  13.0314
    13.8044  14.1122  14.4677  15.1202  15.3215  15.6889  15.9577  16.3435
    16.5914  17.5408  17.5801  18.1994  18.4013  18.5712  21.3220  22.0017
    25.4049  25.9022

     occupation numbers 
     1.0000   1.0000   1.0000   1.0000   1.0000   1.0000   1.0000   1.0000
     1.0000   1.0000   1.0000   1.0000   1.0000   1.0000   1.0000   1.0000
     1.0000   1.0000   1.0000   1.0000   1.0000   1.0000   1.0000   1.0000
     1.0001  -0.0000  -0.0000  -0.0000  -0.0000  -0.0000  -0.0000  -0.0000
    -0.0000  -0.0000

          k = 0.2778 0.3889 0.1805 (  1640 PWs)   bands (ev):

   -71.9529 -68.3667 -38.5888 -38.3209 -37.4324 -34.8362 -34.4021 -33.9791
    11.1867  11.4975  11.8686  12.0167  12.2138  12.5823  12.9785  13.0829
    13.4784  13.9498  14.1336  14.7816  15.1255  15.5176  15.8121  16.3070
    16.9272  17.4626  17.5662  17.9714  18.4145  19.2276  22.1439  22.7934
    23.0317  23.6500

     occupation numbers 
     1.0000   1.0000   1.0000   1.0000   1.0000   1.0000   1.0000   1.0000
     1.0000   1.0000   1.0000   1.0000   1.0000   1.0000   1.0000   1.0000
     1.0000   1.0000   1.0000   1.0000   1.0000   1.0000   1.0000   1.0000
     0.8755  -0.0000  -0.0000  -0.0000  -0.0000  -0.0000  -0.0000  -0.0000
    -0.0000  -0.0000

          k = 0.2778 0.3889 0.3008 (  1640 PWs)   bands (ev):

   -71.9529 -68.3667 -38.5889 -38.3214 -37.4324 -34.8363 -34.4028 -33.9791
    11.4452  11.6771  12.0156  12.1344  12.3832  12.9174  13.0862  13.2855
    13.5618  13.6847  14.4526  14.5424  14.8538  15.4306  15.6295  15.9895
    16.1567  17.4859  17.6080  18.2277  18.6783  20.1521  20.6540  21.5894
    23.9151  24.5555

     occupation numbers 
     1.0000   1.0000   1.0000   1.0000   1.0000   1.0000   1.0000   1.0000
     1.0000   1.0000   1.0000   1.0000   1.0000   1.0000   1.0000   1.0000
     1.0000   1.0000   1.0000   1.0000   1.0000   1.0000   1.0000   1.0000
     1.0000  -0.0000  -0.0000  -0.0000  -0.0000  -0.0000  -0.0000  -0.0000
    -0.0000  -0.0000

          k = 0.2778-0.5000 0.0602 (  1630 PWs)   bands (ev):

   -71.9519 -68.3656 -38.5933 -38.3194 -37.4371 -34.8415 -34.4001 -33.9846
    10.9993  11.3599  11.5373  11.6240  12.1190  12.3023  12.4720  13.0048
    13.9890  14.2290  14.5377  15.2742  15.5252  15.8575  16.2722  16.4004
    17.6724  17.8367  18.1710  18.3652  18.5260  19.3101  19.6813  19.7857
    26.9008  27.1248

     occupation numbers 
     1.0000   1.0000   1.0000   1.0000   1.0000   1.0000   1.0000   1.0000
     1.0000   1.0000   1.0000   1.0000   1.0000   1.0000   1.0000   1.0000
     1.0000   1.0000   1.0000   1.0000   1.0000   1.0000   1.0000   1.0000
    -0.0000  -0.0000  -0.0000  -0.0000  -0.0000  -0.0000  -0.0000  -0.0000
    -0.0000  -0.0000

          k = 0.2778-0.5000 0.1805 (  1638 PWs)   bands (ev):

   -71.9519 -68.3656 -38.5934 -38.3201 -37.4372 -34.8417 -34.4011 -33.9846
    11.1146  11.4524  11.7672  11.9681  12.1004  12.5906  13.0029  13.1270
    13.6133  14.1260  14.2255  14.7648  15.1019  15.8641  16.0904  16.6061
    16.9178  17.5665  18.2055  18.6478  19.4575  19.7796  20.5219  20.6362
    24.4025  24.8170

     occupation numbers 
     1.0000   1.0000   1.0000   1.0000   1.0000   1.0000   1.0000   1.0000
     1.0000   1.0000   1.0000   1.0000   1.0000   1.0000   1.0000   1.0000
     1.0000   1.0000   1.0000   1.0000   1.0000   1.0000   1.0000   1.0002
     0.9104  -0.0000  -0.0000  -0.0000  -0.0000  -0.0000  -0.0000  -0.0000
    -0.0000  -0.0000

          k = 0.2778-0.5000 0.3008 (  1638 PWs)   bands (ev):

   -71.9519 -68.3656 -38.5934 -38.3207 -37.4371 -34.8418 -34.4019 -33.9846
    11.3136  11.5580  11.9052  12.0319  12.3116  12.9976  13.1534  13.3388
    13.5545  13.8793  14.5038  14.6166  14.8399  15.7416  15.9479  16.0532
    16.5581  17.4781  17.8657  18.4999  20.5394  20.6780  21.5559  21.6498
    22.3882  23.0663

     occupation numbers 
     1.0000   1.0000   1.0000   1.0000   1.0000   1.0000   1.0000   1.0000
     1.0000   1.0000   1.0000   1.0000   1.0000   1.0000   1.0000   1.0000
     1.0000   1.0000   1.0000   1.0000   1.0000   1.0000   1.0000   1.0000
     1.0000  -0.0000  -0.0000  -0.0000  -0.0000  -0.0000  -0.0000  -0.0000
    -0.0000  -0.0000

          k = 0.3889 0.3889 0.0602 (  1626 PWs)   bands (ev):

   -71.9504 -68.3639 -38.5994 -38.3182 -37.4447 -34.8484 -34.3984 -33.9938
    10.5999  10.9699  11.4086  11.4553  11.8249  12.2689  12.4825  12.5737
    14.9042  15.2903  15.3426  15.7174  16.1199  16.1703  16.3282  16.7673
    17.1406  17.8843  18.0697  18.3864  18.6496  18.7536  20.9232  21.4955
    25.1792  25.8907

     occupation numbers 
     1.0000   1.0000   1.0000   1.0000   1.0000   1.0000   1.0000   1.0000
     1.0000   1.0000   1.0000   1.0000   1.0000   1.0000   1.0000   1.0000
     1.0000   1.0000   1.0000   1.0000   1.0000   1.0000   1.0000   1.0192
    -0.0302  -0.0000  -0.0000  -0.0000  -0.0000  -0.0000  -0.0000  -0.0000
    -0.0000  -0.0000

          k = 0.3889 0.3889 0.1805 (  1630 PWs)   bands (ev):

   -71.9504 -68.3639 -38.5995 -38.3190 -37.4448 -34.8486 -34.3996 -33.9939
    10.8876  11.1883  11.6317  11.8871  12.0367  12.3922  12.6440  13.1632
    14.0532  14.4179  15.0409  15.3675  15.8032  15.8750  15.9709  16.5996
    17.2627  17.8008  18.1588  18.4267  18.5843  19.9792  22.3282  22.9721
    24.0295  24.4837

     occupation numbers 
     1.0000   1.0000   1.0000   1.0000   1.0000   1.0000   1.0000   1.0000
     1.0000   1.0000   1.0000   1.0000   1.0000   1.0000   1.0000   1.0000
     1.0000   1.0000   1.0000   1.0000   1.0000   1.0000   1.0000   1.0001
    -0.0092  -0.0000  -0.0000  -0.0000  -0.0000  -0.0000  -0.0000  -0.0000
    -0.0000  -0.0000

          k = 0.3889 0.3889 0.3008 (  1634 PWs)   bands (ev):

   -71.9504 -68.3638 -38.5998 -38.3198 -37.4450 -34.8489 -34.4006 -33.9941
    11.2758  11.4579  11.8783  12.1188  12.4157  12.7127  12.8838  13.2983
    13.6003  14.3550  14.6748  15.0739  15.3937  15.5070  15.7304  16.1771
    16.6100  17.6247  17.8496  18.3799  19.9662  21.1334  22.1488  22.9196
    24.3671  24.9292

     occupation numbers 
     1.0000   1.0000   1.0000   1.0000   1.0000   1.0000   1.0000   1.0000
     1.0000   1.0000   1.0000   1.0000   1.0000   1.0000   1.0000   1.0000
     1.0000   1.0000   1.0000   1.0000   1.0000   1.0000   1.0000   1.0000
     1.0002  -0.0000  -0.0000  -0.0000  -0.0000  -0.0000  -0.0000  -0.0000
    -0.0000  -0.0000

          k = 0.3889-0.5000 0.0602 (  1624 PWs)   bands (ev):

   -71.9494 -68.3627 -38.6036 -38.3174 -37.4495 -34.8534 -34.3974 -33.9994
    10.4362  10.8014  11.2996  11.3828  11.6913  12.1274  12.4696  12.5081
    15.3453  15.3975  15.6972  16.0651  16.1499  16.2897  16.7588  17.3828
    18.0625  18.3212  18.4531  18.7070  18.8014  19.3349  19.6386  19.9644
    25.5492  26.2143

     occupation numbers 
     1.0000   1.0000   1.0000   1.0000   1.0000   1.0000   1.0000   1.0000
     1.0000   1.0000   1.0000   1.0000   1.0000   1.0000   1.0000   1.0000
     1.0000   1.0000   1.0000   1.0000   1.0000   1.0000   1.0165  -0.0002
    -0.0000  -0.0000  -0.0000  -0.0000  -0.0000  -0.0000  -0.0000  -0.0000
    -0.0000  -0.0000

          k = 0.3889-0.5000 0.1805 (  1628 PWs)   bands (ev):

   -71.9494 -68.3627 -38.6039 -38.3184 -37.4496 -34.8537 -34.3986 -33.9995
    10.7194  11.0154  11.5295  11.8073  11.9541  12.2978  12.5876  13.2066
    14.3388  14.6198  15.0843  15.6364  15.8688  15.9887  16.4478  17.0435
    17.3127  17.9717  18.2223  18.6336  20.2084  20.6961  21.1014  21.5485
    25.5291  25.6543

     occupation numbers 
     1.0000   1.0000   1.0000   1.0000   1.0000   1.0000   1.0000   1.0000
     1.0000   1.0000   1.0000   1.0000   1.0000   1.0000   1.0000   1.0000
     1.0000   1.0000   1.0000   1.0000   1.0000   1.0000   1.0000   0.2263
    -0.0025  -0.0000  -0.0000  -0.0000  -0.0000  -0.0000  -0.0000  -0.0000
    -0.0000  -0.0000

          k = 0.3889-0.5000 0.3008 (  1640 PWs)   bands (ev):

   -71.9494 -68.3627 -38.6043 -38.3192 -37.4500 -34.8543 -34.3997 -34.0000
    11.0884  11.2702  11.8338  12.0802  12.3829  12.7066  12.8479  13.3858
    13.7204  14.4474  14.6939  15.1705  15.4639  15.8359  15.8711  16.1687
    17.0836  17.7952  17.9069  18.5799  21.7204  22.3525  22.5793  23.1565
    23.7733  24.2903

     occupation numbers 
     1.0000   1.0000   1.0000   1.0000   1.0000   1.0000   1.0000   1.0000
     1.0000   1.0000   1.0000   1.0000   1.0000   1.0000   1.0000   1.0000
     1.0000   1.0000   1.0000   1.0000   1.0000   1.0000   1.0000   1.0000
     0.0628  -0.0000  -0.0000  -0.0000  -0.0000  -0.0000  -0.0000  -0.0000
    -0.0000  -0.0000

          k =-0.5000-0.5000 0.0602 (  1620 PWs)   bands (ev):

   -71.9484 -68.3616 -38.6078 -38.3165 -37.4543 -34.8583 -34.3962 -34.0050
    10.2295  10.5882  11.1888  11.3035  11.5438  12.0294  12.3161  12.5039
    15.4996  15.9178  15.9355  16.1969  16.4078  17.6008  17.6617  18.0071
    18.1856  18.2285  18.5979  18.6941  18.7387  19.3832  19.4292  19.9640
    24.5849  25.3917

     occupation numbers 
     1.0000   1.0000   1.0000   1.0000   1.0000   1.0000   1.0000   1.0000
     1.0000   1.0000   1.0000   1.0000   1.0000   1.0000   1.0000   1.0000
     1.0000   1.0000   1.0000   1.0000   1.0000  -0.0000  -0.0000  -0.0000
    -0.0000  -0.0000  -0.0000  -0.0000  -0.0000  -0.0000  -0.0000  -0.0000
    -0.0000  -0.0000

          k =-0.5000-0.5000 0.1805 (  1632 PWs)   bands (ev):

   -71.9484 -68.3616 -38.6083 -38.3177 -37.4546 -34.8588 -34.3976 -34.0054
    10.5270  10.8112  11.4537  11.7519  11.8377  12.2252  12.4574  13.2180
    14.6155  14.8928  15.1422  15.9134  15.9717  16.4568  16.7205  17.5248
    17.6919  17.9605  18.3644  18.7325  20.4487  21.2894  21.3590  22.0457
    24.6474  25.3809

     occupation numbers 
     1.0000   1.0000   1.0000   1.0000   1.0000   1.0000   1.0000   1.0000
     1.0000   1.0000   1.0000   1.0000   1.0000   1.0000   1.0000   1.0000
     1.0000   1.0000   1.0000   1.0000   1.0000   1.0000   1.0073  -0.0000
    -0.0000  -0.0000  -0.0000  -0.0000  -0.0000  -0.0000  -0.0000  -0.0000
    -0.0000  -0.0000

          k =-0.5000-0.5000 0.3008 (  1632 PWs)   bands (ev):

   -71.9484 -68.3616 -38.6086 -38.3184 -37.4549 -34.8593 -34.3987 -34.0058
    10.8822  11.0595  11.8730  12.1168  12.3461  12.6381  12.7118  13.5750
    13.7685  14.5196  14.7051  15.4372  15.6613  15.9296  15.9379  16.1929
    17.6727  17.8520  18.0856  18.7324  22.3855  23.1261  23.6430  24.2834
    24.8659  24.9502

     occupation numbers 
     1.0000   1.0000   1.0000   1.0000   1.0000   1.0000   1.0000   1.0000
     1.0000   1.0000   1.0000   1.0000   1.0000   1.0000   1.0000   1.0000
     1.0000   1.0000   1.0000   1.0000   1.0000   1.0000   1.0000   1.0000
    -0.0000  -0.0000  -0.0000  -0.0000  -0.0000  -0.0000  -0.0000  -0.0000
    -0.0000  -0.0000

     the Fermi energy is    16.9966 ev
     (compare with:    16.9627 eV, computed in scf)

     Writing all to output data dir ./work/pwscf.save/
 
     init_run     :      0.81s CPU      1.49s WALL (       1 calls)
     electrons    :      9.98s CPU     10.61s WALL (       1 calls)

     Called by init_run:
     wfcinit      :      0.00s CPU      0.00s WALL (       1 calls)
     wfcinit:atom :      0.00s CPU      0.00s WALL (      15 calls)
     wfcinit:wfcr :      0.26s CPU      0.27s WALL (      15 calls)
     potinit      :      0.04s CPU      0.04s WALL (       1 calls)
     hinit0       :      0.37s CPU      0.77s WALL (       1 calls)

     Called by electrons:
     c_bands      :      9.97s CPU     10.61s WALL (       1 calls)
     v_of_rho     :      0.03s CPU      0.03s WALL (       1 calls)
     v_h          :      0.00s CPU      0.00s WALL (       1 calls)
     v_xc         :      0.03s CPU      0.03s WALL (       1 calls)
     newd         :      0.16s CPU      0.18s WALL (       1 calls)

     Called by c_bands:
     init_us_2    :      0.00s CPU      0.00s WALL (      15 calls)
     init_us_2:cp :      0.00s CPU      0.00s WALL (      15 calls)
     cegterg      :      8.68s CPU      9.18s WALL (      43 calls)

     Called by sum_band:

     Called by *egterg:
     cdiaghg      :      1.14s CPU      1.19s WALL (     748 calls)
     cegterg:over :      0.41s CPU      0.45s WALL (     733 calls)
     cegterg:upda :      0.21s CPU      0.21s WALL (     733 calls)
     cegterg:last :      0.54s CPU      0.54s WALL (     525 calls)
     h_psi        :      6.10s CPU      6.48s WALL (     791 calls)
     s_psi        :      0.35s CPU      0.36s WALL (     791 calls)
     g_psi        :      0.04s CPU      0.04s WALL (     733 calls)

     Called by h_psi:
     h_psi:calbec :      0.22s CPU      0.24s WALL (     791 calls)
     vloc_psi     :      5.47s CPU      5.81s WALL (     791 calls)
     add_vuspsi   :      0.39s CPU      0.40s WALL (     791 calls)

     General routines
     calbec       :      0.21s CPU      0.24s WALL (     791 calls)
     fft          :      0.02s CPU      0.03s WALL (      31 calls)
     ffts         :      0.00s CPU      0.00s WALL (       4 calls)
     fftw         :      3.87s CPU      4.15s WALL (   76172 calls)
     interpolate  :      0.00s CPU      0.00s WALL (       4 calls)
 
     Parallel routines
 
     PWSCF        :     11.34s CPU     13.73s WALL

 
   This run was terminated on:   8:13:23  15Nov2022            

=------------------------------------------------------------------------------=
   JOB DONE.
=------------------------------------------------------------------------------=
