
     Program PWSCF v.7.0 starts on  2Aug2023 at 13:45:39 

     This program is part of the open-source Quantum ESPRESSO suite
     for quantum simulation of materials; please cite
         "P. Giannozzi et al., J. Phys.:Condens. Matter 21 395502 (2009);
         "P. Giannozzi et al., J. Phys.:Condens. Matter 29 465901 (2017);
         "P. Giannozzi et al., J. Chem. Phys. 152 154105 (2020);
          URL http://www.quantum-espresso.org", 
     in publications or presentations arising from this work. More details at
     http://www.quantum-espresso.org/quote

     Parallel version (MPI), running on    22 processors

     MPI processes distributed on     1 nodes
     R & G space division:  proc/nbgrp/npool/nimage =      22
     38764 MiB available memory on the printing compute node when the environment starts
 
     Waiting for input...
     Reading input from standard input

     Current dimensions of program PWSCF are:
     Max number of different atomic species (ntypx) = 10
     Max number of k-points (npk) =  40000
     Max angular momentum in pseudopotentials (lmaxx) =  4
     file Pt.rel-pbe-n-rrkjus_psl.0.1.UPF: wavefunction(s)  5D renormalized

     Fixed quantization axis for GGA:     0.000000    0.000000    1.000000

     Subspace diagonalization in iterative solution of the eigenvalue problem:
     a serial algorithm will be used

 
     Parallelization info
     --------------------
     sticks:   dense  smooth     PW     G-vecs:    dense   smooth      PW
     Min          74      24      8                 3184      596     106
     Max          75      25      9                 3189      601     109
     Sum        1649     545    177                70151    13173    2357
 
     Using Slab Decomposition
 


     bravais-lattice index     =            6
     lattice parameter (alat)  =       5.1554  a.u.
     unit-cell volume          =     189.8042 (a.u.)^3
     number of atoms/cell      =            2
     number of atomic types    =            2
     number of electrons       =        26.00
     number of Kohn-Sham states=           98
     kinetic-energy cutoff     =      64.0000  Ry
     charge density cutoff     =     782.0000  Ry
     Exchange-correlation= PBE
                           (   1   4   3   4   0   0   0)
     Noncollinear calculation with spin-orbit


     celldm(1)=   5.155443  celldm(2)=   0.000000  celldm(3)=   1.385185
     celldm(4)=   0.000000  celldm(5)=   0.000000  celldm(6)=   0.000000

     crystal axes: (cart. coord. in units of alat)
               a(1) = (   1.000000   0.000000   0.000000 )  
               a(2) = (   0.000000   1.000000   0.000000 )  
               a(3) = (   0.000000   0.000000   1.385185 )  

     reciprocal axes: (cart. coord. in units 2 pi/alat)
               b(1) = (  1.000000  0.000000  0.000000 )  
               b(2) = (  0.000000  1.000000  0.000000 )  
               b(3) = (  0.000000  0.000000  0.721925 )  


     PseudoPot. # 1 for Fe read from file:
     /home2/koretsune/PWSCF/pseudo_psl031/Fe.rel-pbe-spn-rrkjus_psl.0.2.1.UPF
     MD5 check sum: e4688d448a4fb973b820eb5309e921a0
     Pseudo is Ultrasoft + core correction, Zval = 16.0
     Generated using "atomic" code by A. Dal Corso  v.5.0.99 svn rev. 10869
     Using radial grid of 1191 points, 10 beta functions with: 
                l(1) =   0
                l(2) =   0
                l(3) =   1
                l(4) =   1
                l(5) =   1
                l(6) =   1
                l(7) =   2
                l(8) =   2
                l(9) =   2
               l(10) =   2
     Q(r) pseudized with 0 coefficients 


     PseudoPot. # 2 for Pt read from file:
     /home2/koretsune/PWSCF/pseudo_psl031/Pt.rel-pbe-n-rrkjus_psl.0.1.UPF
     MD5 check sum: 75c9b7c8bba3558fb64ef7de01c2f511
     Pseudo is Ultrasoft + core correction, Zval = 10.0
     Generated using "atomic" code by A. Dal Corso  v.5.0.99 svn rev. 10869
     Using radial grid of 1277 points, 10 beta functions with: 
                l(1) =   0
                l(2) =   0
                l(3) =   1
                l(4) =   1
                l(5) =   1
                l(6) =   1
                l(7) =   2
                l(8) =   2
                l(9) =   2
               l(10) =   2
     Q(r) pseudized with 0 coefficients 


     atomic species   valence    mass     pseudopotential
        Fe            16.00    55.84500     Fe( 1.00)
        Pt            10.00   195.08400     Pt( 1.00)

     16 Sym. Ops., with inversion, found


                                    s                        frac. trans.

      isym =  1     identity                                     

 Time Reversal            0
 cryst.   s( 1) = (     1          0          0      )
                  (     0          1          0      )
                  (     0          0          1      )

 cart.    s( 1) = (  1.0000000  0.0000000  0.0000000 )
                  (  0.0000000  1.0000000  0.0000000 )
                  (  0.0000000  0.0000000  1.0000000 )


      isym =  2     180 deg rotation - cart. axis [0,0,1]        

 Time Reversal            0
 cryst.   s( 2) = (    -1          0          0      )
                  (     0         -1          0      )
                  (     0          0          1      )

 cart.    s( 2) = ( -1.0000000  0.0000000  0.0000000 )
                  (  0.0000000 -1.0000000  0.0000000 )
                  (  0.0000000  0.0000000  1.0000000 )


      isym =  3     180 deg rotation - cart. axis [0,1,0]        

 Time Reversal            1
 cryst.   s( 3) = (    -1          0          0      )
                  (     0          1          0      )
                  (     0          0         -1      )

 cart.    s( 3) = ( -1.0000000  0.0000000  0.0000000 )
                  (  0.0000000  1.0000000  0.0000000 )
                  (  0.0000000  0.0000000 -1.0000000 )


      isym =  4     180 deg rotation - cart. axis [1,0,0]        

 Time Reversal            1
 cryst.   s( 4) = (     1          0          0      )
                  (     0         -1          0      )
                  (     0          0         -1      )

 cart.    s( 4) = (  1.0000000  0.0000000  0.0000000 )
                  (  0.0000000 -1.0000000  0.0000000 )
                  (  0.0000000  0.0000000 -1.0000000 )


      isym =  5     180 deg rotation - cart. axis [1,1,0]        

 Time Reversal            1
 cryst.   s( 5) = (     0          1          0      )
                  (     1          0          0      )
                  (     0          0         -1      )

 cart.    s( 5) = (  0.0000000  1.0000000  0.0000000 )
                  (  1.0000000  0.0000000  0.0000000 )
                  (  0.0000000  0.0000000 -1.0000000 )


      isym =  6     180 deg rotation - cart. axis [1,-1,0]       

 Time Reversal            1
 cryst.   s( 6) = (     0         -1          0      )
                  (    -1          0          0      )
                  (     0          0         -1      )

 cart.    s( 6) = (  0.0000000 -1.0000000  0.0000000 )
                  ( -1.0000000  0.0000000  0.0000000 )
                  (  0.0000000  0.0000000 -1.0000000 )


      isym =  7      90 deg rotation - cart. axis [0,0,-1]       

 Time Reversal            0
 cryst.   s( 7) = (     0         -1          0      )
                  (     1          0          0      )
                  (     0          0          1      )

 cart.    s( 7) = (  0.0000000  1.0000000  0.0000000 )
                  ( -1.0000000  0.0000000  0.0000000 )
                  (  0.0000000  0.0000000  1.0000000 )


      isym =  8      90 deg rotation - cart. axis [0,0,1]        

 Time Reversal            0
 cryst.   s( 8) = (     0          1          0      )
                  (    -1          0          0      )
                  (     0          0          1      )

 cart.    s( 8) = (  0.0000000 -1.0000000  0.0000000 )
                  (  1.0000000  0.0000000  0.0000000 )
                  (  0.0000000  0.0000000  1.0000000 )


      isym =  9     inversion                                    

 Time Reversal            0
 cryst.   s( 9) = (    -1          0          0      )
                  (     0         -1          0      )
                  (     0          0         -1      )

 cart.    s( 9) = ( -1.0000000  0.0000000  0.0000000 )
                  (  0.0000000 -1.0000000  0.0000000 )
                  (  0.0000000  0.0000000 -1.0000000 )


      isym = 10     inv. 180 deg rotation - cart. axis [0,0,1]   

 Time Reversal            0
 cryst.   s(10) = (     1          0          0      )
                  (     0          1          0      )
                  (     0          0         -1      )

 cart.    s(10) = (  1.0000000  0.0000000  0.0000000 )
                  (  0.0000000  1.0000000  0.0000000 )
                  (  0.0000000  0.0000000 -1.0000000 )


      isym = 11     inv. 180 deg rotation - cart. axis [0,1,0]   

 Time Reversal            1
 cryst.   s(11) = (     1          0          0      )
                  (     0         -1          0      )
                  (     0          0          1      )

 cart.    s(11) = (  1.0000000  0.0000000  0.0000000 )
                  (  0.0000000 -1.0000000  0.0000000 )
                  (  0.0000000  0.0000000  1.0000000 )


      isym = 12     inv. 180 deg rotation - cart. axis [1,0,0]   

 Time Reversal            1
 cryst.   s(12) = (    -1          0          0      )
                  (     0          1          0      )
                  (     0          0          1      )

 cart.    s(12) = ( -1.0000000  0.0000000  0.0000000 )
                  (  0.0000000  1.0000000  0.0000000 )
                  (  0.0000000  0.0000000  1.0000000 )


      isym = 13     inv. 180 deg rotation - cart. axis [1,1,0]   

 Time Reversal            1
 cryst.   s(13) = (     0         -1          0      )
                  (    -1          0          0      )
                  (     0          0          1      )

 cart.    s(13) = (  0.0000000 -1.0000000  0.0000000 )
                  ( -1.0000000  0.0000000  0.0000000 )
                  (  0.0000000  0.0000000  1.0000000 )


      isym = 14     inv. 180 deg rotation - cart. axis [1,-1,0]  

 Time Reversal            1
 cryst.   s(14) = (     0          1          0      )
                  (     1          0          0      )
                  (     0          0          1      )

 cart.    s(14) = (  0.0000000  1.0000000  0.0000000 )
                  (  1.0000000  0.0000000  0.0000000 )
                  (  0.0000000  0.0000000  1.0000000 )


      isym = 15     inv.  90 deg rotation - cart. axis [0,0,-1]  

 Time Reversal            0
 cryst.   s(15) = (     0          1          0      )
                  (    -1          0          0      )
                  (     0          0         -1      )

 cart.    s(15) = (  0.0000000 -1.0000000  0.0000000 )
                  (  1.0000000  0.0000000  0.0000000 )
                  (  0.0000000  0.0000000 -1.0000000 )


      isym = 16     inv.  90 deg rotation - cart. axis [0,0,1]   

 Time Reversal            0
 cryst.   s(16) = (     0         -1          0      )
                  (     1          0          0      )
                  (     0          0         -1      )

 cart.    s(16) = (  0.0000000  1.0000000  0.0000000 )
                  ( -1.0000000  0.0000000  0.0000000 )
                  (  0.0000000  0.0000000 -1.0000000 )


     the magnetic double point group is D_4h(4/mmm) [C_4h (4/m) ]
     using the double point group C_4h (4/m) 
     there are 16 classes and  8 irreducible representations
     the character table:

       E     -E    C4    -C4   C2    -C2   C4^3  -C4^3 i     -i    S4^3  -S4^3
                                                                              
G_5+   1.00 -1.00  0.71 -0.71  0.00  0.00  0.71 -0.71  1.00 -1.00  0.71 -0.71
G_6+   1.00 -1.00  0.71 -0.71  0.00  0.00  0.71 -0.71  1.00 -1.00  0.71 -0.71
G_7+   1.00 -1.00 -0.71  0.71  0.00  0.00 -0.71  0.71  1.00 -1.00 -0.71  0.71
G_8+   1.00 -1.00 -0.71  0.71  0.00  0.00 -0.71  0.71  1.00 -1.00 -0.71  0.71
G_5-   1.00 -1.00  0.71 -0.71  0.00  0.00  0.71 -0.71 -1.00  1.00 -0.71  0.71
G_6-   1.00 -1.00  0.71 -0.71  0.00  0.00  0.71 -0.71 -1.00  1.00 -0.71  0.71
G_7-   1.00 -1.00 -0.71  0.71  0.00  0.00 -0.71  0.71 -1.00  1.00  0.71 -0.71
G_8-   1.00 -1.00 -0.71  0.71  0.00  0.00 -0.71  0.71 -1.00  1.00  0.71 -0.71

       s_h   -s_h  S4    -S4  
                              
G_5+   0.00  0.00  0.71 -0.71
G_6+   0.00  0.00  0.71 -0.71
G_7+   0.00  0.00 -0.71  0.71
G_8+   0.00  0.00 -0.71  0.71
G_5-   0.00  0.00 -0.71  0.71
G_6-   0.00  0.00 -0.71  0.71
G_7-   0.00  0.00  0.71 -0.71
G_8-   0.00  0.00  0.71 -0.71

     imaginary part

       E     -E    C4    -C4   C2    -C2   C4^3  -C4^3 i     -i    S4^3  -S4^3
                                                                              
G_5+   0.00  0.00  0.71 -0.71  1.00 -1.00 -0.71  0.71  0.00  0.00  0.71 -0.71
G_6+   0.00  0.00 -0.71  0.71 -1.00  1.00  0.71 -0.71  0.00  0.00 -0.71  0.71
G_7+   0.00  0.00 -0.71  0.71  1.00 -1.00  0.71 -0.71  0.00  0.00 -0.71  0.71
G_8+   0.00  0.00  0.71 -0.71 -1.00  1.00 -0.71  0.71  0.00  0.00  0.71 -0.71
G_5-   0.00  0.00  0.71 -0.71  1.00 -1.00 -0.71  0.71  0.00  0.00 -0.71  0.71
G_6-   0.00  0.00 -0.71  0.71 -1.00  1.00  0.71 -0.71  0.00  0.00  0.71 -0.71
G_7-   0.00  0.00 -0.71  0.71  1.00 -1.00  0.71 -0.71  0.00  0.00  0.71 -0.71
G_8-   0.00  0.00  0.71 -0.71 -1.00  1.00 -0.71  0.71  0.00  0.00 -0.71  0.71

       s_h   -s_h  S4    -S4  
                              
G_5+   1.00 -1.00 -0.71  0.71
G_6+  -1.00  1.00  0.71 -0.71
G_7+   1.00 -1.00  0.71 -0.71
G_8+  -1.00  1.00 -0.71  0.71
G_5-  -1.00  1.00  0.71 -0.71
G_6-   1.00 -1.00 -0.71  0.71
G_7-  -1.00  1.00 -0.71  0.71
G_8-   1.00 -1.00  0.71 -0.71

     the symmetry operations in each class and the name of the first element:

     E             1
          identity                                               
     -E           -1
          identity E                                             
     C4            4
           90 deg rotation - cart. axis [0,0,1]                  
     -C4          -4
           90 deg rotation - cart. axis [0,0,1] E                
     C2            2
          180 deg rotation - cart. axis [0,0,1]                  
     -C2          -2
          180 deg rotation - cart. axis [0,0,1] E                
     C4^3          3
           90 deg rotation - cart. axis [0,0,-1]                 
     -C4^3        -3
           90 deg rotation - cart. axis [0,0,-1] E               
     i             5
          inversion                                              
     -i           -5
          inversion E                                            
     S4^3          8
          inv.  90 deg rotation - cart. axis [0,0,1]             
     -S4^3        -8
          inv.  90 deg rotation - cart. axis [0,0,1] E           
     s_h           6
          inv. 180 deg rotation - cart. axis [0,0,1]             
     -s_h         -6
          inv. 180 deg rotation - cart. axis [0,0,1] E           
     S4            7
          inv.  90 deg rotation - cart. axis [0,0,-1]            
     -S4          -7
          inv.  90 deg rotation - cart. axis [0,0,-1] E          

   Cartesian axes

     site n.     atom                  positions (alat units)
         1           Fe  tau(   1) = (   0.0000000   0.0000000   0.0000000  )
         2           Pt  tau(   2) = (   0.5000000   0.5000000   0.6925927  )

   Crystallographic axes

     site n.     atom                  positions (cryst. coord.)
         1           Fe  tau(   1) = (  0.0000000  0.0000000  0.0000000  )
         2           Pt  tau(   2) = (  0.5000000  0.5000000  0.5000000  )

     number of k points=   211  Methfessel-Paxton smearing, width (Ry)=  0.0100
                       cart. coord. in units 2pi/alat
        k(    1) = (   0.0000000   0.0000000   0.0000000), wk =   0.0047393
        k(    2) = (   0.0000000   0.0166667   0.0000000), wk =   0.0047393
        k(    3) = (   0.0000000   0.0333333   0.0000000), wk =   0.0047393
        k(    4) = (   0.0000000   0.0500000   0.0000000), wk =   0.0047393
        k(    5) = (   0.0000000   0.0666667   0.0000000), wk =   0.0047393
        k(    6) = (   0.0000000   0.0833333   0.0000000), wk =   0.0047393
        k(    7) = (   0.0000000   0.1000000   0.0000000), wk =   0.0047393
        k(    8) = (   0.0000000   0.1166667   0.0000000), wk =   0.0047393
        k(    9) = (   0.0000000   0.1333333   0.0000000), wk =   0.0047393
        k(   10) = (   0.0000000   0.1500000   0.0000000), wk =   0.0047393
        k(   11) = (   0.0000000   0.1666667   0.0000000), wk =   0.0047393
        k(   12) = (   0.0000000   0.1833333   0.0000000), wk =   0.0047393
        k(   13) = (   0.0000000   0.2000000   0.0000000), wk =   0.0047393
        k(   14) = (   0.0000000   0.2166667   0.0000000), wk =   0.0047393
        k(   15) = (   0.0000000   0.2333333   0.0000000), wk =   0.0047393
        k(   16) = (   0.0000000   0.2500000   0.0000000), wk =   0.0047393
        k(   17) = (   0.0000000   0.2666667   0.0000000), wk =   0.0047393
        k(   18) = (   0.0000000   0.2833333   0.0000000), wk =   0.0047393
        k(   19) = (   0.0000000   0.3000000   0.0000000), wk =   0.0047393
        k(   20) = (   0.0000000   0.3166667   0.0000000), wk =   0.0047393
        k(   21) = (   0.0000000   0.3333333   0.0000000), wk =   0.0047393
        k(   22) = (   0.0000000   0.3500000   0.0000000), wk =   0.0047393
        k(   23) = (   0.0000000   0.3666667   0.0000000), wk =   0.0047393
        k(   24) = (   0.0000000   0.3833333   0.0000000), wk =   0.0047393
        k(   25) = (   0.0000000   0.4000000   0.0000000), wk =   0.0047393
        k(   26) = (   0.0000000   0.4166667   0.0000000), wk =   0.0047393
        k(   27) = (   0.0000000   0.4333333   0.0000000), wk =   0.0047393
        k(   28) = (   0.0000000   0.4500000   0.0000000), wk =   0.0047393
        k(   29) = (   0.0000000   0.4666667   0.0000000), wk =   0.0047393
        k(   30) = (   0.0000000   0.4833333   0.0000000), wk =   0.0047393
        k(   31) = (   0.0000000   0.5000000   0.0000000), wk =   0.0047393
        k(   32) = (   0.0166667   0.5000000   0.0000000), wk =   0.0047393
        k(   33) = (   0.0333333   0.5000000   0.0000000), wk =   0.0047393
        k(   34) = (   0.0500000   0.5000000   0.0000000), wk =   0.0047393
        k(   35) = (   0.0666667   0.5000000   0.0000000), wk =   0.0047393
        k(   36) = (   0.0833333   0.5000000   0.0000000), wk =   0.0047393
        k(   37) = (   0.1000000   0.5000000   0.0000000), wk =   0.0047393
        k(   38) = (   0.1166667   0.5000000   0.0000000), wk =   0.0047393
        k(   39) = (   0.1333333   0.5000000   0.0000000), wk =   0.0047393
        k(   40) = (   0.1500000   0.5000000   0.0000000), wk =   0.0047393
        k(   41) = (   0.1666667   0.5000000   0.0000000), wk =   0.0047393
        k(   42) = (   0.1833333   0.5000000   0.0000000), wk =   0.0047393
        k(   43) = (   0.2000000   0.5000000   0.0000000), wk =   0.0047393
        k(   44) = (   0.2166667   0.5000000   0.0000000), wk =   0.0047393
        k(   45) = (   0.2333333   0.5000000   0.0000000), wk =   0.0047393
        k(   46) = (   0.2500000   0.5000000   0.0000000), wk =   0.0047393
        k(   47) = (   0.2666667   0.5000000   0.0000000), wk =   0.0047393
        k(   48) = (   0.2833333   0.5000000   0.0000000), wk =   0.0047393
        k(   49) = (   0.3000000   0.5000000   0.0000000), wk =   0.0047393
        k(   50) = (   0.3166667   0.5000000   0.0000000), wk =   0.0047393
        k(   51) = (   0.3333333   0.5000000   0.0000000), wk =   0.0047393
        k(   52) = (   0.3500000   0.5000000   0.0000000), wk =   0.0047393
        k(   53) = (   0.3666667   0.5000000   0.0000000), wk =   0.0047393
        k(   54) = (   0.3833333   0.5000000   0.0000000), wk =   0.0047393
        k(   55) = (   0.4000000   0.5000000   0.0000000), wk =   0.0047393
        k(   56) = (   0.4166667   0.5000000   0.0000000), wk =   0.0047393
        k(   57) = (   0.4333333   0.5000000   0.0000000), wk =   0.0047393
        k(   58) = (   0.4500000   0.5000000   0.0000000), wk =   0.0047393
        k(   59) = (   0.4666667   0.5000000   0.0000000), wk =   0.0047393
        k(   60) = (   0.4833333   0.5000000   0.0000000), wk =   0.0047393
        k(   61) = (   0.5000000   0.5000000   0.0000000), wk =   0.0047393
        k(   62) = (   0.4833333   0.4833333   0.0000000), wk =   0.0047393
        k(   63) = (   0.4666667   0.4666667   0.0000000), wk =   0.0047393
        k(   64) = (   0.4500000   0.4500000   0.0000000), wk =   0.0047393
        k(   65) = (   0.4333333   0.4333333   0.0000000), wk =   0.0047393
        k(   66) = (   0.4166667   0.4166667   0.0000000), wk =   0.0047393
        k(   67) = (   0.4000000   0.4000000   0.0000000), wk =   0.0047393
        k(   68) = (   0.3833333   0.3833333   0.0000000), wk =   0.0047393
        k(   69) = (   0.3666667   0.3666667   0.0000000), wk =   0.0047393
        k(   70) = (   0.3500000   0.3500000   0.0000000), wk =   0.0047393
        k(   71) = (   0.3333333   0.3333333   0.0000000), wk =   0.0047393
        k(   72) = (   0.3166667   0.3166667   0.0000000), wk =   0.0047393
        k(   73) = (   0.3000000   0.3000000   0.0000000), wk =   0.0047393
        k(   74) = (   0.2833333   0.2833333   0.0000000), wk =   0.0047393
        k(   75) = (   0.2666667   0.2666667   0.0000000), wk =   0.0047393
        k(   76) = (   0.2500000   0.2500000   0.0000000), wk =   0.0047393
        k(   77) = (   0.2333333   0.2333333   0.0000000), wk =   0.0047393
        k(   78) = (   0.2166667   0.2166667   0.0000000), wk =   0.0047393
        k(   79) = (   0.2000000   0.2000000   0.0000000), wk =   0.0047393
        k(   80) = (   0.1833333   0.1833333   0.0000000), wk =   0.0047393
        k(   81) = (   0.1666667   0.1666667   0.0000000), wk =   0.0047393
        k(   82) = (   0.1500000   0.1500000   0.0000000), wk =   0.0047393
        k(   83) = (   0.1333333   0.1333333   0.0000000), wk =   0.0047393
        k(   84) = (   0.1166667   0.1166667   0.0000000), wk =   0.0047393
        k(   85) = (   0.1000000   0.1000000   0.0000000), wk =   0.0047393
        k(   86) = (   0.0833333   0.0833333   0.0000000), wk =   0.0047393
        k(   87) = (   0.0666667   0.0666667   0.0000000), wk =   0.0047393
        k(   88) = (   0.0500000   0.0500000   0.0000000), wk =   0.0047393
        k(   89) = (   0.0333333   0.0333333   0.0000000), wk =   0.0047393
        k(   90) = (   0.0166667   0.0166667   0.0000000), wk =   0.0047393
        k(   91) = (   0.0000000   0.0000000   0.0000000), wk =   0.0047393
        k(   92) = (   0.0000000   0.0000000   0.0120321), wk =   0.0047393
        k(   93) = (   0.0000000   0.0000000   0.0240642), wk =   0.0047393
        k(   94) = (   0.0000000   0.0000000   0.0360962), wk =   0.0047393
        k(   95) = (   0.0000000   0.0000000   0.0481283), wk =   0.0047393
        k(   96) = (   0.0000000   0.0000000   0.0601604), wk =   0.0047393
        k(   97) = (   0.0000000   0.0000000   0.0721925), wk =   0.0047393
        k(   98) = (   0.0000000   0.0000000   0.0842246), wk =   0.0047393
        k(   99) = (   0.0000000   0.0000000   0.0962567), wk =   0.0047393
        k(  100) = (   0.0000000   0.0000000   0.1082887), wk =   0.0047393
        k(  101) = (   0.0000000   0.0000000   0.1203208), wk =   0.0047393
        k(  102) = (   0.0000000   0.0000000   0.1323529), wk =   0.0047393
        k(  103) = (   0.0000000   0.0000000   0.1443850), wk =   0.0047393
        k(  104) = (   0.0000000   0.0000000   0.1564171), wk =   0.0047393
        k(  105) = (   0.0000000   0.0000000   0.1684492), wk =   0.0047393
        k(  106) = (   0.0000000   0.0000000   0.1804812), wk =   0.0047393
        k(  107) = (   0.0000000   0.0000000   0.1925133), wk =   0.0047393
        k(  108) = (   0.0000000   0.0000000   0.2045454), wk =   0.0047393
        k(  109) = (   0.0000000   0.0000000   0.2165775), wk =   0.0047393
        k(  110) = (   0.0000000   0.0000000   0.2286096), wk =   0.0047393
        k(  111) = (   0.0000000   0.0000000   0.2406417), wk =   0.0047393
        k(  112) = (   0.0000000   0.0000000   0.2526737), wk =   0.0047393
        k(  113) = (   0.0000000   0.0000000   0.2647058), wk =   0.0047393
        k(  114) = (   0.0000000   0.0000000   0.2767379), wk =   0.0047393
        k(  115) = (   0.0000000   0.0000000   0.2887700), wk =   0.0047393
        k(  116) = (   0.0000000   0.0000000   0.3008021), wk =   0.0047393
        k(  117) = (   0.0000000   0.0000000   0.3128342), wk =   0.0047393
        k(  118) = (   0.0000000   0.0000000   0.3248662), wk =   0.0047393
        k(  119) = (   0.0000000   0.0000000   0.3368983), wk =   0.0047393
        k(  120) = (   0.0000000   0.0000000   0.3489304), wk =   0.0047393
        k(  121) = (   0.0000000   0.0000000   0.3609625), wk =   0.0047393
        k(  122) = (   0.0000000   0.0166667   0.3609625), wk =   0.0047393
        k(  123) = (   0.0000000   0.0333333   0.3609625), wk =   0.0047393
        k(  124) = (   0.0000000   0.0500000   0.3609625), wk =   0.0047393
        k(  125) = (   0.0000000   0.0666667   0.3609625), wk =   0.0047393
        k(  126) = (   0.0000000   0.0833333   0.3609625), wk =   0.0047393
        k(  127) = (   0.0000000   0.1000000   0.3609625), wk =   0.0047393
        k(  128) = (   0.0000000   0.1166667   0.3609625), wk =   0.0047393
        k(  129) = (   0.0000000   0.1333333   0.3609625), wk =   0.0047393
        k(  130) = (   0.0000000   0.1500000   0.3609625), wk =   0.0047393
        k(  131) = (   0.0000000   0.1666667   0.3609625), wk =   0.0047393
        k(  132) = (   0.0000000   0.1833333   0.3609625), wk =   0.0047393
        k(  133) = (   0.0000000   0.2000000   0.3609625), wk =   0.0047393
        k(  134) = (   0.0000000   0.2166667   0.3609625), wk =   0.0047393
        k(  135) = (   0.0000000   0.2333333   0.3609625), wk =   0.0047393
        k(  136) = (   0.0000000   0.2500000   0.3609625), wk =   0.0047393
        k(  137) = (   0.0000000   0.2666667   0.3609625), wk =   0.0047393
        k(  138) = (   0.0000000   0.2833333   0.3609625), wk =   0.0047393
        k(  139) = (   0.0000000   0.3000000   0.3609625), wk =   0.0047393
        k(  140) = (   0.0000000   0.3166667   0.3609625), wk =   0.0047393
        k(  141) = (   0.0000000   0.3333333   0.3609625), wk =   0.0047393
        k(  142) = (   0.0000000   0.3500000   0.3609625), wk =   0.0047393
        k(  143) = (   0.0000000   0.3666667   0.3609625), wk =   0.0047393
        k(  144) = (   0.0000000   0.3833333   0.3609625), wk =   0.0047393
        k(  145) = (   0.0000000   0.4000000   0.3609625), wk =   0.0047393
        k(  146) = (   0.0000000   0.4166667   0.3609625), wk =   0.0047393
        k(  147) = (   0.0000000   0.4333333   0.3609625), wk =   0.0047393
        k(  148) = (   0.0000000   0.4500000   0.3609625), wk =   0.0047393
        k(  149) = (   0.0000000   0.4666667   0.3609625), wk =   0.0047393
        k(  150) = (   0.0000000   0.4833333   0.3609625), wk =   0.0047393
        k(  151) = (   0.0000000   0.5000000   0.3609625), wk =   0.0047393
        k(  152) = (   0.0166667   0.5000000   0.3609625), wk =   0.0047393
        k(  153) = (   0.0333333   0.5000000   0.3609625), wk =   0.0047393
        k(  154) = (   0.0500000   0.5000000   0.3609625), wk =   0.0047393
        k(  155) = (   0.0666667   0.5000000   0.3609625), wk =   0.0047393
        k(  156) = (   0.0833333   0.5000000   0.3609625), wk =   0.0047393
        k(  157) = (   0.1000000   0.5000000   0.3609625), wk =   0.0047393
        k(  158) = (   0.1166667   0.5000000   0.3609625), wk =   0.0047393
        k(  159) = (   0.1333333   0.5000000   0.3609625), wk =   0.0047393
        k(  160) = (   0.1500000   0.5000000   0.3609625), wk =   0.0047393
        k(  161) = (   0.1666667   0.5000000   0.3609625), wk =   0.0047393
        k(  162) = (   0.1833333   0.5000000   0.3609625), wk =   0.0047393
        k(  163) = (   0.2000000   0.5000000   0.3609625), wk =   0.0047393
        k(  164) = (   0.2166667   0.5000000   0.3609625), wk =   0.0047393
        k(  165) = (   0.2333333   0.5000000   0.3609625), wk =   0.0047393
        k(  166) = (   0.2500000   0.5000000   0.3609625), wk =   0.0047393
        k(  167) = (   0.2666667   0.5000000   0.3609625), wk =   0.0047393
        k(  168) = (   0.2833333   0.5000000   0.3609625), wk =   0.0047393
        k(  169) = (   0.3000000   0.5000000   0.3609625), wk =   0.0047393
        k(  170) = (   0.3166667   0.5000000   0.3609625), wk =   0.0047393
        k(  171) = (   0.3333333   0.5000000   0.3609625), wk =   0.0047393
        k(  172) = (   0.3500000   0.5000000   0.3609625), wk =   0.0047393
        k(  173) = (   0.3666667   0.5000000   0.3609625), wk =   0.0047393
        k(  174) = (   0.3833333   0.5000000   0.3609625), wk =   0.0047393
        k(  175) = (   0.4000000   0.5000000   0.3609625), wk =   0.0047393
        k(  176) = (   0.4166667   0.5000000   0.3609625), wk =   0.0047393
        k(  177) = (   0.4333333   0.5000000   0.3609625), wk =   0.0047393
        k(  178) = (   0.4500000   0.5000000   0.3609625), wk =   0.0047393
        k(  179) = (   0.4666667   0.5000000   0.3609625), wk =   0.0047393
        k(  180) = (   0.4833333   0.5000000   0.3609625), wk =   0.0047393
        k(  181) = (   0.5000000   0.5000000   0.3609625), wk =   0.0047393
        k(  182) = (   0.4833333   0.4833333   0.3609625), wk =   0.0047393
        k(  183) = (   0.4666667   0.4666667   0.3609625), wk =   0.0047393
        k(  184) = (   0.4500000   0.4500000   0.3609625), wk =   0.0047393
        k(  185) = (   0.4333333   0.4333333   0.3609625), wk =   0.0047393
        k(  186) = (   0.4166667   0.4166667   0.3609625), wk =   0.0047393
        k(  187) = (   0.4000000   0.4000000   0.3609625), wk =   0.0047393
        k(  188) = (   0.3833333   0.3833333   0.3609625), wk =   0.0047393
        k(  189) = (   0.3666667   0.3666667   0.3609625), wk =   0.0047393
        k(  190) = (   0.3500000   0.3500000   0.3609625), wk =   0.0047393
        k(  191) = (   0.3333333   0.3333333   0.3609625), wk =   0.0047393
        k(  192) = (   0.3166667   0.3166667   0.3609625), wk =   0.0047393
        k(  193) = (   0.3000000   0.3000000   0.3609625), wk =   0.0047393
        k(  194) = (   0.2833333   0.2833333   0.3609625), wk =   0.0047393
        k(  195) = (   0.2666667   0.2666667   0.3609625), wk =   0.0047393
        k(  196) = (   0.2500000   0.2500000   0.3609625), wk =   0.0047393
        k(  197) = (   0.2333333   0.2333333   0.3609625), wk =   0.0047393
        k(  198) = (   0.2166667   0.2166667   0.3609625), wk =   0.0047393
        k(  199) = (   0.2000000   0.2000000   0.3609625), wk =   0.0047393
        k(  200) = (   0.1833333   0.1833333   0.3609625), wk =   0.0047393
        k(  201) = (   0.1666667   0.1666667   0.3609625), wk =   0.0047393
        k(  202) = (   0.1500000   0.1500000   0.3609625), wk =   0.0047393
        k(  203) = (   0.1333333   0.1333333   0.3609625), wk =   0.0047393
        k(  204) = (   0.1166667   0.1166667   0.3609625), wk =   0.0047393
        k(  205) = (   0.1000000   0.1000000   0.3609625), wk =   0.0047393
        k(  206) = (   0.0833333   0.0833333   0.3609625), wk =   0.0047393
        k(  207) = (   0.0666667   0.0666667   0.3609625), wk =   0.0047393
        k(  208) = (   0.0500000   0.0500000   0.3609625), wk =   0.0047393
        k(  209) = (   0.0333333   0.0333333   0.3609625), wk =   0.0047393
        k(  210) = (   0.0166667   0.0166667   0.3609625), wk =   0.0047393
        k(  211) = (   0.0000000   0.0000000   0.3609625), wk =   0.0047393

                       cryst. coord.
        k(    1) = (   0.0000000   0.0000000   0.0000000), wk =   0.0047393
        k(    2) = (   0.0000000   0.0166667   0.0000000), wk =   0.0047393
        k(    3) = (   0.0000000   0.0333333   0.0000000), wk =   0.0047393
        k(    4) = (   0.0000000   0.0500000   0.0000000), wk =   0.0047393
        k(    5) = (   0.0000000   0.0666667   0.0000000), wk =   0.0047393
        k(    6) = (   0.0000000   0.0833333   0.0000000), wk =   0.0047393
        k(    7) = (   0.0000000   0.1000000   0.0000000), wk =   0.0047393
        k(    8) = (   0.0000000   0.1166667   0.0000000), wk =   0.0047393
        k(    9) = (   0.0000000   0.1333333   0.0000000), wk =   0.0047393
        k(   10) = (   0.0000000   0.1500000   0.0000000), wk =   0.0047393
        k(   11) = (   0.0000000   0.1666667   0.0000000), wk =   0.0047393
        k(   12) = (   0.0000000   0.1833333   0.0000000), wk =   0.0047393
        k(   13) = (   0.0000000   0.2000000   0.0000000), wk =   0.0047393
        k(   14) = (   0.0000000   0.2166667   0.0000000), wk =   0.0047393
        k(   15) = (   0.0000000   0.2333333   0.0000000), wk =   0.0047393
        k(   16) = (   0.0000000   0.2500000   0.0000000), wk =   0.0047393
        k(   17) = (   0.0000000   0.2666667   0.0000000), wk =   0.0047393
        k(   18) = (   0.0000000   0.2833333   0.0000000), wk =   0.0047393
        k(   19) = (   0.0000000   0.3000000   0.0000000), wk =   0.0047393
        k(   20) = (   0.0000000   0.3166667   0.0000000), wk =   0.0047393
        k(   21) = (   0.0000000   0.3333333   0.0000000), wk =   0.0047393
        k(   22) = (   0.0000000   0.3500000   0.0000000), wk =   0.0047393
        k(   23) = (   0.0000000   0.3666667   0.0000000), wk =   0.0047393
        k(   24) = (   0.0000000   0.3833333   0.0000000), wk =   0.0047393
        k(   25) = (   0.0000000   0.4000000   0.0000000), wk =   0.0047393
        k(   26) = (   0.0000000   0.4166667   0.0000000), wk =   0.0047393
        k(   27) = (   0.0000000   0.4333333   0.0000000), wk =   0.0047393
        k(   28) = (   0.0000000   0.4500000   0.0000000), wk =   0.0047393
        k(   29) = (   0.0000000   0.4666667   0.0000000), wk =   0.0047393
        k(   30) = (   0.0000000   0.4833333   0.0000000), wk =   0.0047393
        k(   31) = (   0.0000000   0.5000000   0.0000000), wk =   0.0047393
        k(   32) = (   0.0166667   0.5000000   0.0000000), wk =   0.0047393
        k(   33) = (   0.0333333   0.5000000   0.0000000), wk =   0.0047393
        k(   34) = (   0.0500000   0.5000000   0.0000000), wk =   0.0047393
        k(   35) = (   0.0666667   0.5000000   0.0000000), wk =   0.0047393
        k(   36) = (   0.0833333   0.5000000   0.0000000), wk =   0.0047393
        k(   37) = (   0.1000000   0.5000000   0.0000000), wk =   0.0047393
        k(   38) = (   0.1166667   0.5000000   0.0000000), wk =   0.0047393
        k(   39) = (   0.1333333   0.5000000   0.0000000), wk =   0.0047393
        k(   40) = (   0.1500000   0.5000000   0.0000000), wk =   0.0047393
        k(   41) = (   0.1666667   0.5000000   0.0000000), wk =   0.0047393
        k(   42) = (   0.1833333   0.5000000   0.0000000), wk =   0.0047393
        k(   43) = (   0.2000000   0.5000000   0.0000000), wk =   0.0047393
        k(   44) = (   0.2166667   0.5000000   0.0000000), wk =   0.0047393
        k(   45) = (   0.2333333   0.5000000   0.0000000), wk =   0.0047393
        k(   46) = (   0.2500000   0.5000000   0.0000000), wk =   0.0047393
        k(   47) = (   0.2666667   0.5000000   0.0000000), wk =   0.0047393
        k(   48) = (   0.2833333   0.5000000   0.0000000), wk =   0.0047393
        k(   49) = (   0.3000000   0.5000000   0.0000000), wk =   0.0047393
        k(   50) = (   0.3166667   0.5000000   0.0000000), wk =   0.0047393
        k(   51) = (   0.3333333   0.5000000   0.0000000), wk =   0.0047393
        k(   52) = (   0.3500000   0.5000000   0.0000000), wk =   0.0047393
        k(   53) = (   0.3666667   0.5000000   0.0000000), wk =   0.0047393
        k(   54) = (   0.3833333   0.5000000   0.0000000), wk =   0.0047393
        k(   55) = (   0.4000000   0.5000000   0.0000000), wk =   0.0047393
        k(   56) = (   0.4166667   0.5000000   0.0000000), wk =   0.0047393
        k(   57) = (   0.4333333   0.5000000   0.0000000), wk =   0.0047393
        k(   58) = (   0.4500000   0.5000000   0.0000000), wk =   0.0047393
        k(   59) = (   0.4666667   0.5000000   0.0000000), wk =   0.0047393
        k(   60) = (   0.4833333   0.5000000   0.0000000), wk =   0.0047393
        k(   61) = (   0.5000000   0.5000000   0.0000000), wk =   0.0047393
        k(   62) = (   0.4833333   0.4833333   0.0000000), wk =   0.0047393
        k(   63) = (   0.4666667   0.4666667   0.0000000), wk =   0.0047393
        k(   64) = (   0.4500000   0.4500000   0.0000000), wk =   0.0047393
        k(   65) = (   0.4333333   0.4333333   0.0000000), wk =   0.0047393
        k(   66) = (   0.4166667   0.4166667   0.0000000), wk =   0.0047393
        k(   67) = (   0.4000000   0.4000000   0.0000000), wk =   0.0047393
        k(   68) = (   0.3833333   0.3833333   0.0000000), wk =   0.0047393
        k(   69) = (   0.3666667   0.3666667   0.0000000), wk =   0.0047393
        k(   70) = (   0.3500000   0.3500000   0.0000000), wk =   0.0047393
        k(   71) = (   0.3333333   0.3333333   0.0000000), wk =   0.0047393
        k(   72) = (   0.3166667   0.3166667   0.0000000), wk =   0.0047393
        k(   73) = (   0.3000000   0.3000000   0.0000000), wk =   0.0047393
        k(   74) = (   0.2833333   0.2833333   0.0000000), wk =   0.0047393
        k(   75) = (   0.2666667   0.2666667   0.0000000), wk =   0.0047393
        k(   76) = (   0.2500000   0.2500000   0.0000000), wk =   0.0047393
        k(   77) = (   0.2333333   0.2333333   0.0000000), wk =   0.0047393
        k(   78) = (   0.2166667   0.2166667   0.0000000), wk =   0.0047393
        k(   79) = (   0.2000000   0.2000000   0.0000000), wk =   0.0047393
        k(   80) = (   0.1833333   0.1833333   0.0000000), wk =   0.0047393
        k(   81) = (   0.1666667   0.1666667   0.0000000), wk =   0.0047393
        k(   82) = (   0.1500000   0.1500000   0.0000000), wk =   0.0047393
        k(   83) = (   0.1333333   0.1333333   0.0000000), wk =   0.0047393
        k(   84) = (   0.1166667   0.1166667   0.0000000), wk =   0.0047393
        k(   85) = (   0.1000000   0.1000000   0.0000000), wk =   0.0047393
        k(   86) = (   0.0833333   0.0833333   0.0000000), wk =   0.0047393
        k(   87) = (   0.0666667   0.0666667   0.0000000), wk =   0.0047393
        k(   88) = (   0.0500000   0.0500000   0.0000000), wk =   0.0047393
        k(   89) = (   0.0333333   0.0333333   0.0000000), wk =   0.0047393
        k(   90) = (   0.0166667   0.0166667   0.0000000), wk =   0.0047393
        k(   91) = (   0.0000000   0.0000000   0.0000000), wk =   0.0047393
        k(   92) = (   0.0000000   0.0000000   0.0166667), wk =   0.0047393
        k(   93) = (   0.0000000   0.0000000   0.0333333), wk =   0.0047393
        k(   94) = (   0.0000000   0.0000000   0.0500000), wk =   0.0047393
        k(   95) = (   0.0000000   0.0000000   0.0666667), wk =   0.0047393
        k(   96) = (   0.0000000   0.0000000   0.0833333), wk =   0.0047393
        k(   97) = (   0.0000000   0.0000000   0.1000000), wk =   0.0047393
        k(   98) = (   0.0000000   0.0000000   0.1166667), wk =   0.0047393
        k(   99) = (   0.0000000   0.0000000   0.1333333), wk =   0.0047393
        k(  100) = (   0.0000000   0.0000000   0.1500000), wk =   0.0047393
        k(  101) = (   0.0000000   0.0000000   0.1666667), wk =   0.0047393
        k(  102) = (   0.0000000   0.0000000   0.1833333), wk =   0.0047393
        k(  103) = (   0.0000000   0.0000000   0.2000000), wk =   0.0047393
        k(  104) = (   0.0000000   0.0000000   0.2166667), wk =   0.0047393
        k(  105) = (   0.0000000   0.0000000   0.2333333), wk =   0.0047393
        k(  106) = (   0.0000000   0.0000000   0.2500000), wk =   0.0047393
        k(  107) = (   0.0000000   0.0000000   0.2666667), wk =   0.0047393
        k(  108) = (   0.0000000   0.0000000   0.2833333), wk =   0.0047393
        k(  109) = (   0.0000000   0.0000000   0.3000000), wk =   0.0047393
        k(  110) = (   0.0000000   0.0000000   0.3166667), wk =   0.0047393
        k(  111) = (   0.0000000   0.0000000   0.3333333), wk =   0.0047393
        k(  112) = (   0.0000000   0.0000000   0.3500000), wk =   0.0047393
        k(  113) = (   0.0000000   0.0000000   0.3666667), wk =   0.0047393
        k(  114) = (   0.0000000   0.0000000   0.3833333), wk =   0.0047393
        k(  115) = (   0.0000000   0.0000000   0.4000000), wk =   0.0047393
        k(  116) = (   0.0000000   0.0000000   0.4166667), wk =   0.0047393
        k(  117) = (   0.0000000   0.0000000   0.4333333), wk =   0.0047393
        k(  118) = (   0.0000000   0.0000000   0.4500000), wk =   0.0047393
        k(  119) = (   0.0000000   0.0000000   0.4666667), wk =   0.0047393
        k(  120) = (   0.0000000   0.0000000   0.4833333), wk =   0.0047393
        k(  121) = (   0.0000000   0.0000000   0.5000000), wk =   0.0047393
        k(  122) = (   0.0000000   0.0166667   0.5000000), wk =   0.0047393
        k(  123) = (   0.0000000   0.0333333   0.5000000), wk =   0.0047393
        k(  124) = (   0.0000000   0.0500000   0.5000000), wk =   0.0047393
        k(  125) = (   0.0000000   0.0666667   0.5000000), wk =   0.0047393
        k(  126) = (   0.0000000   0.0833333   0.5000000), wk =   0.0047393
        k(  127) = (   0.0000000   0.1000000   0.5000000), wk =   0.0047393
        k(  128) = (   0.0000000   0.1166667   0.5000000), wk =   0.0047393
        k(  129) = (   0.0000000   0.1333333   0.5000000), wk =   0.0047393
        k(  130) = (   0.0000000   0.1500000   0.5000000), wk =   0.0047393
        k(  131) = (   0.0000000   0.1666667   0.5000000), wk =   0.0047393
        k(  132) = (   0.0000000   0.1833333   0.5000000), wk =   0.0047393
        k(  133) = (   0.0000000   0.2000000   0.5000000), wk =   0.0047393
        k(  134) = (   0.0000000   0.2166667   0.5000000), wk =   0.0047393
        k(  135) = (   0.0000000   0.2333333   0.5000000), wk =   0.0047393
        k(  136) = (   0.0000000   0.2500000   0.5000000), wk =   0.0047393
        k(  137) = (   0.0000000   0.2666667   0.5000000), wk =   0.0047393
        k(  138) = (   0.0000000   0.2833333   0.5000000), wk =   0.0047393
        k(  139) = (   0.0000000   0.3000000   0.5000000), wk =   0.0047393
        k(  140) = (   0.0000000   0.3166667   0.5000000), wk =   0.0047393
        k(  141) = (   0.0000000   0.3333333   0.5000000), wk =   0.0047393
        k(  142) = (   0.0000000   0.3500000   0.5000000), wk =   0.0047393
        k(  143) = (   0.0000000   0.3666667   0.5000000), wk =   0.0047393
        k(  144) = (   0.0000000   0.3833333   0.5000000), wk =   0.0047393
        k(  145) = (   0.0000000   0.4000000   0.5000000), wk =   0.0047393
        k(  146) = (   0.0000000   0.4166667   0.5000000), wk =   0.0047393
        k(  147) = (   0.0000000   0.4333333   0.5000000), wk =   0.0047393
        k(  148) = (   0.0000000   0.4500000   0.5000000), wk =   0.0047393
        k(  149) = (   0.0000000   0.4666667   0.5000000), wk =   0.0047393
        k(  150) = (   0.0000000   0.4833333   0.5000000), wk =   0.0047393
        k(  151) = (   0.0000000   0.5000000   0.5000000), wk =   0.0047393
        k(  152) = (   0.0166667   0.5000000   0.5000000), wk =   0.0047393
        k(  153) = (   0.0333333   0.5000000   0.5000000), wk =   0.0047393
        k(  154) = (   0.0500000   0.5000000   0.5000000), wk =   0.0047393
        k(  155) = (   0.0666667   0.5000000   0.5000000), wk =   0.0047393
        k(  156) = (   0.0833333   0.5000000   0.5000000), wk =   0.0047393
        k(  157) = (   0.1000000   0.5000000   0.5000000), wk =   0.0047393
        k(  158) = (   0.1166667   0.5000000   0.5000000), wk =   0.0047393
        k(  159) = (   0.1333333   0.5000000   0.5000000), wk =   0.0047393
        k(  160) = (   0.1500000   0.5000000   0.5000000), wk =   0.0047393
        k(  161) = (   0.1666667   0.5000000   0.5000000), wk =   0.0047393
        k(  162) = (   0.1833333   0.5000000   0.5000000), wk =   0.0047393
        k(  163) = (   0.2000000   0.5000000   0.5000000), wk =   0.0047393
        k(  164) = (   0.2166667   0.5000000   0.5000000), wk =   0.0047393
        k(  165) = (   0.2333333   0.5000000   0.5000000), wk =   0.0047393
        k(  166) = (   0.2500000   0.5000000   0.5000000), wk =   0.0047393
        k(  167) = (   0.2666667   0.5000000   0.5000000), wk =   0.0047393
        k(  168) = (   0.2833333   0.5000000   0.5000000), wk =   0.0047393
        k(  169) = (   0.3000000   0.5000000   0.5000000), wk =   0.0047393
        k(  170) = (   0.3166667   0.5000000   0.5000000), wk =   0.0047393
        k(  171) = (   0.3333333   0.5000000   0.5000000), wk =   0.0047393
        k(  172) = (   0.3500000   0.5000000   0.5000000), wk =   0.0047393
        k(  173) = (   0.3666667   0.5000000   0.5000000), wk =   0.0047393
        k(  174) = (   0.3833333   0.5000000   0.5000000), wk =   0.0047393
        k(  175) = (   0.4000000   0.5000000   0.5000000), wk =   0.0047393
        k(  176) = (   0.4166667   0.5000000   0.5000000), wk =   0.0047393
        k(  177) = (   0.4333333   0.5000000   0.5000000), wk =   0.0047393
        k(  178) = (   0.4500000   0.5000000   0.5000000), wk =   0.0047393
        k(  179) = (   0.4666667   0.5000000   0.5000000), wk =   0.0047393
        k(  180) = (   0.4833333   0.5000000   0.5000000), wk =   0.0047393
        k(  181) = (   0.5000000   0.5000000   0.5000000), wk =   0.0047393
        k(  182) = (   0.4833333   0.4833333   0.5000000), wk =   0.0047393
        k(  183) = (   0.4666667   0.4666667   0.5000000), wk =   0.0047393
        k(  184) = (   0.4500000   0.4500000   0.5000000), wk =   0.0047393
        k(  185) = (   0.4333333   0.4333333   0.5000000), wk =   0.0047393
        k(  186) = (   0.4166667   0.4166667   0.5000000), wk =   0.0047393
        k(  187) = (   0.4000000   0.4000000   0.5000000), wk =   0.0047393
        k(  188) = (   0.3833333   0.3833333   0.5000000), wk =   0.0047393
        k(  189) = (   0.3666667   0.3666667   0.5000000), wk =   0.0047393
        k(  190) = (   0.3500000   0.3500000   0.5000000), wk =   0.0047393
        k(  191) = (   0.3333333   0.3333333   0.5000000), wk =   0.0047393
        k(  192) = (   0.3166667   0.3166667   0.5000000), wk =   0.0047393
        k(  193) = (   0.3000000   0.3000000   0.5000000), wk =   0.0047393
        k(  194) = (   0.2833333   0.2833333   0.5000000), wk =   0.0047393
        k(  195) = (   0.2666667   0.2666667   0.5000000), wk =   0.0047393
        k(  196) = (   0.2500000   0.2500000   0.5000000), wk =   0.0047393
        k(  197) = (   0.2333333   0.2333333   0.5000000), wk =   0.0047393
        k(  198) = (   0.2166667   0.2166667   0.5000000), wk =   0.0047393
        k(  199) = (   0.2000000   0.2000000   0.5000000), wk =   0.0047393
        k(  200) = (   0.1833333   0.1833333   0.5000000), wk =   0.0047393
        k(  201) = (   0.1666667   0.1666667   0.5000000), wk =   0.0047393
        k(  202) = (   0.1500000   0.1500000   0.5000000), wk =   0.0047393
        k(  203) = (   0.1333333   0.1333333   0.5000000), wk =   0.0047393
        k(  204) = (   0.1166667   0.1166667   0.5000000), wk =   0.0047393
        k(  205) = (   0.1000000   0.1000000   0.5000000), wk =   0.0047393
        k(  206) = (   0.0833333   0.0833333   0.5000000), wk =   0.0047393
        k(  207) = (   0.0666667   0.0666667   0.5000000), wk =   0.0047393
        k(  208) = (   0.0500000   0.0500000   0.5000000), wk =   0.0047393
        k(  209) = (   0.0333333   0.0333333   0.5000000), wk =   0.0047393
        k(  210) = (   0.0166667   0.0166667   0.5000000), wk =   0.0047393
        k(  211) = (   0.0000000   0.0000000   0.5000000), wk =   0.0047393

     Dense  grid:    70151 G-vectors     FFT dimensions: (  45,  45,  64)

     Smooth grid:    13173 G-vectors     FFT dimensions: (  27,  27,  40)

     Dynamical RAM for                 wfc:       0.22 MB

     Dynamical RAM for     wfc (w. buffer):      46.92 MB

     Dynamical RAM for           str. fact:       0.10 MB

     Dynamical RAM for           local pot:       0.00 MB

     Dynamical RAM for          nlocal pot:       0.08 MB

     Dynamical RAM for                qrad:      11.75 MB

     Dynamical RAM for          rho,v,vnew:       1.14 MB

     Dynamical RAM for           G-vectors:       0.19 MB

     Dynamical RAM for          h,s,v(r/c):       1.76 MB

     Dynamical RAM for          <psi|beta>:       0.20 MB

     Dynamical RAM for                 psi:       0.44 MB

     Dynamical RAM for                hpsi:       0.44 MB

     Dynamical RAM for                spsi:       0.44 MB

     Dynamical RAM for      wfcinit/wfcrot:       0.55 MB

     Dynamical RAM for           addusdens:      29.88 MB

     Estimated static dynamical RAM per process >      60.69 MB

     Estimated max dynamical RAM per process >      90.56 MB

     Estimated total dynamical RAM >       1.95 GB

     Check: negative core charge=   -0.000005
     Generating pointlists ...
     new r_m :   0.4083 (alat units)  2.1049 (a.u.) for type    1
     new r_m :   0.4083 (alat units)  2.1049 (a.u.) for type    2
     Message from routine read_rhog:
     some spin components not found
 
 -----------
Spin angles Theta, Phi (degree) =   0.0000  0.0000
 -----------

     The potential is recalculated from file :
     ./work/pwscf.save/charge-density

     Starting wfcs are   44 randomized atomic wfcs +   54 random wfcs

     Band Structure Calculation
     Davidson diagonalization with overlap

     Computing kpt #:     1  of   211
     total cpu time spent up to now is        1.4 secs

     Computing kpt #:     2  of   211
     total cpu time spent up to now is        2.1 secs

     Computing kpt #:     3  of   211
     total cpu time spent up to now is        2.8 secs

     Computing kpt #:     4  of   211
     total cpu time spent up to now is        3.4 secs

     Computing kpt #:     5  of   211
     total cpu time spent up to now is        4.2 secs

     Computing kpt #:     6  of   211
     total cpu time spent up to now is        4.9 secs

     Computing kpt #:     7  of   211
     total cpu time spent up to now is        5.6 secs

     Computing kpt #:     8  of   211
     total cpu time spent up to now is        6.3 secs

     Computing kpt #:     9  of   211
     total cpu time spent up to now is        7.0 secs

     Computing kpt #:    10  of   211
     total cpu time spent up to now is        7.8 secs

     Computing kpt #:    11  of   211
     total cpu time spent up to now is        8.6 secs

     Computing kpt #:    12  of   211
     total cpu time spent up to now is        9.4 secs

     Computing kpt #:    13  of   211
     total cpu time spent up to now is       10.2 secs

     Computing kpt #:    14  of   211
     total cpu time spent up to now is       10.9 secs

     Computing kpt #:    15  of   211
     total cpu time spent up to now is       11.6 secs

     Computing kpt #:    16  of   211
     total cpu time spent up to now is       12.4 secs

     Computing kpt #:    17  of   211
     total cpu time spent up to now is       13.1 secs

     Computing kpt #:    18  of   211
     total cpu time spent up to now is       13.9 secs

     Computing kpt #:    19  of   211
     total cpu time spent up to now is       14.8 secs

     Computing kpt #:    20  of   211
     total cpu time spent up to now is       15.6 secs

     Computing kpt #:    21  of   211
     total cpu time spent up to now is       16.3 secs

     Computing kpt #:    22  of   211
     total cpu time spent up to now is       17.1 secs

     Computing kpt #:    23  of   211
     total cpu time spent up to now is       18.0 secs

     Computing kpt #:    24  of   211
     total cpu time spent up to now is       18.8 secs

     Computing kpt #:    25  of   211
     total cpu time spent up to now is       19.6 secs

     Computing kpt #:    26  of   211
     total cpu time spent up to now is       20.4 secs

     Computing kpt #:    27  of   211
     total cpu time spent up to now is       21.1 secs

     Computing kpt #:    28  of   211
     total cpu time spent up to now is       21.9 secs

     Computing kpt #:    29  of   211
     total cpu time spent up to now is       22.7 secs

     Computing kpt #:    30  of   211
     total cpu time spent up to now is       23.6 secs

     Computing kpt #:    31  of   211
     total cpu time spent up to now is       24.4 secs

     Computing kpt #:    32  of   211
     total cpu time spent up to now is       25.2 secs

     Computing kpt #:    33  of   211
     total cpu time spent up to now is       25.9 secs

     Computing kpt #:    34  of   211
     total cpu time spent up to now is       26.7 secs

     Computing kpt #:    35  of   211
     total cpu time spent up to now is       27.5 secs

     Computing kpt #:    36  of   211
     total cpu time spent up to now is       28.2 secs

     Computing kpt #:    37  of   211
     total cpu time spent up to now is       28.9 secs

     Computing kpt #:    38  of   211
     total cpu time spent up to now is       29.7 secs

     Computing kpt #:    39  of   211
     total cpu time spent up to now is       30.5 secs

     Computing kpt #:    40  of   211
     total cpu time spent up to now is       31.3 secs

     Computing kpt #:    41  of   211
     total cpu time spent up to now is       32.1 secs

     Computing kpt #:    42  of   211
     total cpu time spent up to now is       33.0 secs

     Computing kpt #:    43  of   211
     total cpu time spent up to now is       33.8 secs

     Computing kpt #:    44  of   211
     total cpu time spent up to now is       34.6 secs

     Computing kpt #:    45  of   211
     total cpu time spent up to now is       35.4 secs

     Computing kpt #:    46  of   211
     total cpu time spent up to now is       36.2 secs

     Computing kpt #:    47  of   211
     total cpu time spent up to now is       37.0 secs

     Computing kpt #:    48  of   211
     total cpu time spent up to now is       37.8 secs

     Computing kpt #:    49  of   211
     total cpu time spent up to now is       38.6 secs

     Computing kpt #:    50  of   211
     total cpu time spent up to now is       39.4 secs

     Computing kpt #:    51  of   211
     total cpu time spent up to now is       40.2 secs

     Computing kpt #:    52  of   211
     total cpu time spent up to now is       41.1 secs

     Computing kpt #:    53  of   211
     total cpu time spent up to now is       41.9 secs

     Computing kpt #:    54  of   211
     total cpu time spent up to now is       42.8 secs

     Computing kpt #:    55  of   211
     total cpu time spent up to now is       43.6 secs

     Computing kpt #:    56  of   211
     total cpu time spent up to now is       44.4 secs

     Computing kpt #:    57  of   211
     total cpu time spent up to now is       45.2 secs

     Computing kpt #:    58  of   211
     total cpu time spent up to now is       46.0 secs

     Computing kpt #:    59  of   211
     total cpu time spent up to now is       46.8 secs

     Computing kpt #:    60  of   211
     total cpu time spent up to now is       47.7 secs

     Computing kpt #:    61  of   211
     total cpu time spent up to now is       48.5 secs

     Computing kpt #:    62  of   211
     total cpu time spent up to now is       49.3 secs

     Computing kpt #:    63  of   211
     total cpu time spent up to now is       50.1 secs

     Computing kpt #:    64  of   211
     total cpu time spent up to now is       50.9 secs

     Computing kpt #:    65  of   211
     total cpu time spent up to now is       51.8 secs

     Computing kpt #:    66  of   211
     total cpu time spent up to now is       52.7 secs

     Computing kpt #:    67  of   211
     total cpu time spent up to now is       53.5 secs

     Computing kpt #:    68  of   211
     total cpu time spent up to now is       54.4 secs

     Computing kpt #:    69  of   211
     total cpu time spent up to now is       55.2 secs

     Computing kpt #:    70  of   211
     total cpu time spent up to now is       56.1 secs

     Computing kpt #:    71  of   211
     total cpu time spent up to now is       57.0 secs

     Computing kpt #:    72  of   211
     total cpu time spent up to now is       57.8 secs

     Computing kpt #:    73  of   211
     total cpu time spent up to now is       58.6 secs

     Computing kpt #:    74  of   211
     total cpu time spent up to now is       59.4 secs

     Computing kpt #:    75  of   211
     total cpu time spent up to now is       60.2 secs

     Computing kpt #:    76  of   211
     total cpu time spent up to now is       61.0 secs

     Computing kpt #:    77  of   211
     total cpu time spent up to now is       61.8 secs

     Computing kpt #:    78  of   211
     total cpu time spent up to now is       62.6 secs

     Computing kpt #:    79  of   211
     total cpu time spent up to now is       63.4 secs

     Computing kpt #:    80  of   211
     total cpu time spent up to now is       64.2 secs

     Computing kpt #:    81  of   211
     total cpu time spent up to now is       64.9 secs

     Computing kpt #:    82  of   211
     total cpu time spent up to now is       65.7 secs

     Computing kpt #:    83  of   211
     total cpu time spent up to now is       66.5 secs

     Computing kpt #:    84  of   211
     total cpu time spent up to now is       67.3 secs

     Computing kpt #:    85  of   211
     total cpu time spent up to now is       68.1 secs

     Computing kpt #:    86  of   211
     total cpu time spent up to now is       68.8 secs

     Computing kpt #:    87  of   211
     total cpu time spent up to now is       69.5 secs

     Computing kpt #:    88  of   211
     total cpu time spent up to now is       70.2 secs

     Computing kpt #:    89  of   211
     total cpu time spent up to now is       70.8 secs

     Computing kpt #:    90  of   211
     total cpu time spent up to now is       71.3 secs

     Computing kpt #:    91  of   211
     total cpu time spent up to now is       72.0 secs

     Computing kpt #:    92  of   211
     total cpu time spent up to now is       72.6 secs

     Computing kpt #:    93  of   211
     total cpu time spent up to now is       73.3 secs

     Computing kpt #:    94  of   211
     total cpu time spent up to now is       73.9 secs

     Computing kpt #:    95  of   211
     total cpu time spent up to now is       74.6 secs

     Computing kpt #:    96  of   211
     total cpu time spent up to now is       75.3 secs

     Computing kpt #:    97  of   211
     total cpu time spent up to now is       75.9 secs

     Computing kpt #:    98  of   211
     total cpu time spent up to now is       76.6 secs

     Computing kpt #:    99  of   211
     total cpu time spent up to now is       77.4 secs

     Computing kpt #:   100  of   211
     total cpu time spent up to now is       78.2 secs

     Computing kpt #:   101  of   211
     total cpu time spent up to now is       78.9 secs

     Computing kpt #:   102  of   211
     total cpu time spent up to now is       79.8 secs

     Computing kpt #:   103  of   211
     total cpu time spent up to now is       80.5 secs

     Computing kpt #:   104  of   211
     total cpu time spent up to now is       81.3 secs

     Computing kpt #:   105  of   211
     total cpu time spent up to now is       82.0 secs

     Computing kpt #:   106  of   211
     total cpu time spent up to now is       82.8 secs

     Computing kpt #:   107  of   211
     total cpu time spent up to now is       83.6 secs

     Computing kpt #:   108  of   211
     total cpu time spent up to now is       84.4 secs

     Computing kpt #:   109  of   211
     total cpu time spent up to now is       85.1 secs

     Computing kpt #:   110  of   211
     total cpu time spent up to now is       85.9 secs

     Computing kpt #:   111  of   211
     total cpu time spent up to now is       86.7 secs

     Computing kpt #:   112  of   211
     total cpu time spent up to now is       87.4 secs

     Computing kpt #:   113  of   211
     total cpu time spent up to now is       88.2 secs

     Computing kpt #:   114  of   211
     total cpu time spent up to now is       89.0 secs

     Computing kpt #:   115  of   211
     total cpu time spent up to now is       89.8 secs

     Computing kpt #:   116  of   211
     total cpu time spent up to now is       90.6 secs

     Computing kpt #:   117  of   211
     total cpu time spent up to now is       91.3 secs

     Computing kpt #:   118  of   211
     total cpu time spent up to now is       92.1 secs

     Computing kpt #:   119  of   211
     total cpu time spent up to now is       92.9 secs

     Computing kpt #:   120  of   211
     total cpu time spent up to now is       93.7 secs

     Computing kpt #:   121  of   211
     total cpu time spent up to now is       94.5 secs

     Computing kpt #:   122  of   211
     total cpu time spent up to now is       95.2 secs

     Computing kpt #:   123  of   211
     total cpu time spent up to now is       95.9 secs

     Computing kpt #:   124  of   211
     total cpu time spent up to now is       96.7 secs

     Computing kpt #:   125  of   211
     total cpu time spent up to now is       97.4 secs

     Computing kpt #:   126  of   211
     total cpu time spent up to now is       98.1 secs

     Computing kpt #:   127  of   211
     total cpu time spent up to now is       98.9 secs

     Computing kpt #:   128  of   211
     total cpu time spent up to now is       99.6 secs

     Computing kpt #:   129  of   211
     total cpu time spent up to now is      100.4 secs

     Computing kpt #:   130  of   211
     total cpu time spent up to now is      101.2 secs

     Computing kpt #:   131  of   211
     total cpu time spent up to now is      101.9 secs

     Computing kpt #:   132  of   211
     total cpu time spent up to now is      102.7 secs

     Computing kpt #:   133  of   211
     total cpu time spent up to now is      103.5 secs

     Computing kpt #:   134  of   211
     total cpu time spent up to now is      104.3 secs

     Computing kpt #:   135  of   211
     total cpu time spent up to now is      105.0 secs

     Computing kpt #:   136  of   211
     total cpu time spent up to now is      105.9 secs

     Computing kpt #:   137  of   211
     total cpu time spent up to now is      106.7 secs

     Computing kpt #:   138  of   211
     total cpu time spent up to now is      107.6 secs

     Computing kpt #:   139  of   211
     total cpu time spent up to now is      108.6 secs

     Computing kpt #:   140  of   211
     total cpu time spent up to now is      109.4 secs

     Computing kpt #:   141  of   211
     total cpu time spent up to now is      110.2 secs

     Computing kpt #:   142  of   211
     total cpu time spent up to now is      111.0 secs

     Computing kpt #:   143  of   211
     total cpu time spent up to now is      111.7 secs

     Computing kpt #:   144  of   211
     total cpu time spent up to now is      112.5 secs

     Computing kpt #:   145  of   211
     total cpu time spent up to now is      113.4 secs

     Computing kpt #:   146  of   211
     total cpu time spent up to now is      114.3 secs

     Computing kpt #:   147  of   211
     total cpu time spent up to now is      115.1 secs

     Computing kpt #:   148  of   211
     total cpu time spent up to now is      115.8 secs

     Computing kpt #:   149  of   211
     total cpu time spent up to now is      116.6 secs

     Computing kpt #:   150  of   211
     total cpu time spent up to now is      117.4 secs

     Computing kpt #:   151  of   211
     total cpu time spent up to now is      118.1 secs

     Computing kpt #:   152  of   211
     total cpu time spent up to now is      118.9 secs

     Computing kpt #:   153  of   211
     total cpu time spent up to now is      119.6 secs

     Computing kpt #:   154  of   211
     total cpu time spent up to now is      120.3 secs

     Computing kpt #:   155  of   211
     total cpu time spent up to now is      121.1 secs

     Computing kpt #:   156  of   211
     total cpu time spent up to now is      121.8 secs

     Computing kpt #:   157  of   211
     total cpu time spent up to now is      122.7 secs

     Computing kpt #:   158  of   211
     total cpu time spent up to now is      123.6 secs

     Computing kpt #:   159  of   211
     total cpu time spent up to now is      125.2 secs

     Computing kpt #:   160  of   211
     total cpu time spent up to now is      126.0 secs

     Computing kpt #:   161  of   211
     total cpu time spent up to now is      126.8 secs

     Computing kpt #:   162  of   211
     total cpu time spent up to now is      127.5 secs

     Computing kpt #:   163  of   211
     total cpu time spent up to now is      128.3 secs

     Computing kpt #:   164  of   211
     total cpu time spent up to now is      129.0 secs

     Computing kpt #:   165  of   211
     total cpu time spent up to now is      129.8 secs

     Computing kpt #:   166  of   211
     total cpu time spent up to now is      130.6 secs

     Computing kpt #:   167  of   211
     total cpu time spent up to now is      131.5 secs

     Computing kpt #:   168  of   211
     total cpu time spent up to now is      132.3 secs

     Computing kpt #:   169  of   211
     total cpu time spent up to now is      133.1 secs

     Computing kpt #:   170  of   211
     total cpu time spent up to now is      134.0 secs

     Computing kpt #:   171  of   211
     total cpu time spent up to now is      134.8 secs

     Computing kpt #:   172  of   211
     total cpu time spent up to now is      135.6 secs

     Computing kpt #:   173  of   211
     total cpu time spent up to now is      136.5 secs

     Computing kpt #:   174  of   211
     total cpu time spent up to now is      137.3 secs

     Computing kpt #:   175  of   211
     total cpu time spent up to now is      138.1 secs

     Computing kpt #:   176  of   211
     total cpu time spent up to now is      138.9 secs

     Computing kpt #:   177  of   211
     total cpu time spent up to now is      139.7 secs

     Computing kpt #:   178  of   211
     total cpu time spent up to now is      140.5 secs

     Computing kpt #:   179  of   211
     total cpu time spent up to now is      141.3 secs

     Computing kpt #:   180  of   211
     total cpu time spent up to now is      142.1 secs

     Computing kpt #:   181  of   211
     total cpu time spent up to now is      142.9 secs

     Computing kpt #:   182  of   211
     total cpu time spent up to now is      143.7 secs

     Computing kpt #:   183  of   211
     total cpu time spent up to now is      144.4 secs

     Computing kpt #:   184  of   211
     total cpu time spent up to now is      145.2 secs

     Computing kpt #:   185  of   211
     total cpu time spent up to now is      145.9 secs

     Computing kpt #:   186  of   211
     total cpu time spent up to now is      146.6 secs

     Computing kpt #:   187  of   211
     total cpu time spent up to now is      147.4 secs

     Computing kpt #:   188  of   211
     total cpu time spent up to now is      148.2 secs

     Computing kpt #:   189  of   211
     total cpu time spent up to now is      149.0 secs

     Computing kpt #:   190  of   211
     total cpu time spent up to now is      149.8 secs

     Computing kpt #:   191  of   211
     total cpu time spent up to now is      150.7 secs

     Computing kpt #:   192  of   211
     total cpu time spent up to now is      151.5 secs

     Computing kpt #:   193  of   211
     total cpu time spent up to now is      152.4 secs

     Computing kpt #:   194  of   211
     total cpu time spent up to now is      153.2 secs

     Computing kpt #:   195  of   211
     total cpu time spent up to now is      154.1 secs

     Computing kpt #:   196  of   211
     total cpu time spent up to now is      154.9 secs

     Computing kpt #:   197  of   211
     total cpu time spent up to now is      155.8 secs

     Computing kpt #:   198  of   211
     total cpu time spent up to now is      156.6 secs

     Computing kpt #:   199  of   211
     total cpu time spent up to now is      157.5 secs

     Computing kpt #:   200  of   211
     total cpu time spent up to now is      158.4 secs

     Computing kpt #:   201  of   211
     total cpu time spent up to now is      159.2 secs

     Computing kpt #:   202  of   211
     total cpu time spent up to now is      160.2 secs

     Computing kpt #:   203  of   211
     total cpu time spent up to now is      161.1 secs

     Computing kpt #:   204  of   211
     total cpu time spent up to now is      161.9 secs

     Computing kpt #:   205  of   211
     total cpu time spent up to now is      162.6 secs

     Computing kpt #:   206  of   211
     total cpu time spent up to now is      163.4 secs

     Computing kpt #:   207  of   211
     total cpu time spent up to now is      164.2 secs

     Computing kpt #:   208  of   211
     total cpu time spent up to now is      164.9 secs

     Computing kpt #:   209  of   211
     total cpu time spent up to now is      165.6 secs

     Computing kpt #:   210  of   211
     total cpu time spent up to now is      166.4 secs

     Computing kpt #:   211  of   211
     total cpu time spent up to now is      167.2 secs

     ethr =  3.85E-11,  avg # of iterations = 33.9

     total cpu time spent up to now is      167.2 secs

     End of band structure calculation

------
 eband, Ef (eV) =   -111.914029383523        16.9626747275406     
------


          k = 0.0000 0.0000 0.0000 (  1651 PWs)   bands (ev):

   -71.9655 -68.3811 -38.5329 -38.3286 -37.3695 -34.7695 -34.4123 -33.9048
     7.5006   7.6269  10.7031  10.8789  11.2488  11.2594  13.5057  13.7393
    13.9549  14.3196  14.8388  15.0624  15.2313  15.9971  16.3473  16.4096
    16.6073  16.9864  17.6214  18.5919  18.7391  18.8372  18.9653  19.1367
    26.2793  27.1341  28.4607  28.7182  29.2905  29.5946  34.9920  35.1879
    35.6557  36.3322  36.4094  36.9688  38.9943  39.0871  39.5887  39.6769
    39.9637  40.1393  43.8342  44.1272  45.6385  45.8419  46.2373  46.4439
    48.2110  48.3102  50.1462  50.5594  51.9613  52.1768  52.3381  52.6828
    52.7284  53.2438  53.9040  54.8595  56.5258  57.1164  57.5317  57.6335
    59.7460  59.8071  59.8720  59.9351  60.0217  60.2042  60.5018  60.6670
    64.7631  64.8453  67.4556  67.7692  68.0834  68.1274  68.1750  68.3493
    68.3494  68.3655  69.0431  69.5927  70.7183  71.1433  77.1439  77.3724
    77.7553  77.9837

          k = 0.0000 0.0167 0.0000 (  1643 PWs)   bands (ev):

   -71.9654 -68.3810 -38.5328 -38.3286 -37.3694 -34.7694 -34.4123 -33.9047
     7.5078   7.6342  10.7074  10.8833  11.2528  11.2641  13.5053  13.7390
    13.9565  14.3175  14.8371  15.0601  15.2306  15.9952  16.3333  16.4064
    16.6009  16.9713  17.6203  18.5372  18.7345  18.7783  19.0026  19.2590
    26.2761  27.1293  28.4450  28.7058  29.2720  29.5789  34.9985  35.1931
    35.6698  36.3421  36.4434  37.0023  38.9820  39.0731  39.5736  39.6593
    39.9466  40.1249  43.8907  44.1776  45.6391  45.8409  46.2350  46.4394
    48.1582  48.2619  50.1425  50.5639  51.8778  52.1617  52.3220  52.5989
    52.7411  53.2475  54.0409  54.9710  56.5408  57.1297  57.4033  57.4914
    59.8060  59.8782  59.9305  60.0137  60.0569  60.2189  60.4891  60.6541
    64.7857  64.8673  67.3576  67.5832  67.7187  68.1240  68.2754  68.3417
    68.3623  68.6166  69.2464  69.7078  70.7845  71.2127  77.0907  77.3247
    77.6985  77.9347

          k = 0.0000 0.0333 0.0000 (  1643 PWs)   bands (ev):

   -71.9654 -68.3810 -38.5332 -38.3286 -37.3698 -34.7698 -34.4122 -33.9052
     7.5294   7.6560  10.7202  10.8965  11.2623  11.2808  13.5039  13.7384
    13.9613  14.3110  14.8323  15.0531  15.2289  15.9884  16.2887  16.3998
    16.5817  16.9314  17.6176  18.3846  18.7213  18.7313  19.1085  19.4847
    26.2662  27.1142  28.3872  28.6597  29.2314  29.5442  35.0178  35.2085
    35.6937  36.3533  36.5586  37.1165  38.9359  39.0224  39.5416  39.6148
    39.9054  40.0849  44.0486  44.3182  45.6383  45.8411  46.2276  46.4273
    48.0139  48.1272  50.1067  50.5602  51.6904  52.1172  52.2751  52.3938
    52.7898  53.2898  54.3681  55.2550  56.5835  57.0716  57.1417  57.1756
    59.9178  59.9286  60.0476  60.1040  60.3123  60.4018  60.4563  60.6205
    64.8542  64.9343  66.8899  67.1710  67.6033  68.1813  68.2111  68.4502
    68.4584  68.6629  69.7209  70.0849  70.9672  71.4005  76.9009  77.2264
    77.4923  77.8407

          k = 0.0000 0.0500 0.0000 (  1647 PWs)   bands (ev):

   -71.9653 -68.3808 -38.5337 -38.3286 -37.3704 -34.7705 -34.4123 -33.9059
     7.5653   7.6921  10.7407  10.9190  11.2755  11.3109  13.5007  13.7383
    13.9691  14.2989  14.8249  15.0416  15.2268  15.9724  16.2149  16.3932
    16.5504  16.8787  17.6144  18.1962  18.6998  18.7087  19.2696  19.7391
    26.2483  27.0867  28.2641  28.5605  29.2058  29.5228  35.0488  35.2328
    35.6921  36.3323  36.7761  37.3320  38.8383  38.9197  39.5216  39.5571
    39.8672  40.0275  44.2768  44.5189  45.6286  45.8519  46.2131  46.4134
    47.8144  47.9332  49.9830  50.5019  51.5145  52.0441  52.1791  52.2009
    52.8737  53.3897  54.7802  55.6231  56.6330  56.6543  56.7114  57.2333
    59.8789  60.0708  60.1132  60.2305  60.4065  60.5712  60.7240  60.7829
    64.9714  65.0487  66.3545  66.6162  67.7087  67.9632  68.3424  68.4368
    68.6610  68.6912  70.2746  70.6118  71.2386  71.6723  76.5680  77.1187
    77.1356  77.7419

          k = 0.0000 0.0667 0.0000 (  1649 PWs)   bands (ev):

   -71.9651 -68.3807 -38.5345 -38.3286 -37.3712 -34.7714 -34.4122 -33.9069
     7.6153   7.7424  10.7680  10.9516  11.2932  11.3535  13.4945  13.7400
    13.9795  14.2801  14.8160  15.0263  15.2252  15.9343  16.1269  16.3872
    16.5074  16.8235  17.6116  18.0051  18.6707  18.6904  19.4723  20.0086
    26.2199  27.0419  28.0645  28.3977  29.2247  29.5437  35.0900  35.2640
    35.6458  36.2638  37.0960  37.6458  38.6872  38.7659  39.4798  39.5241
    39.8680  39.9687  44.5289  44.7306  45.6019  45.8848  46.1866  46.4089
    47.6101  47.7212  49.7329  50.3359  51.4173  51.9423  52.0419  52.1048
    52.9958  53.5439  55.2109  55.9114  56.2151  56.3049  56.7409  57.3099
    59.8019  59.9973  60.3264  60.4006  60.4588  60.5489  61.1648  61.2014
    65.1411  65.2146  65.8236  66.0752  67.7004  67.8612  68.2096  68.5106
    68.9287  68.9325  70.8169  71.1649  71.5868  72.0103  76.1355  76.6781
    76.9966  77.6296

          k = 0.0000 0.0833 0.0000 (  1643 PWs)   bands (ev):

   -71.9649 -68.3804 -38.5353 -38.3285 -37.3721 -34.7724 -34.4120 -33.9080
     7.6791   7.8065  10.8010  10.9950  11.3155  11.4081  13.4840  13.7451
    13.9918  14.2525  14.8068  15.0081  15.2249  15.8497  16.0551  16.3827
    16.4538  16.7705  17.6097  17.8205  18.6348  18.6712  19.7055  20.2893
    26.1759  26.9708  27.8045  28.1866  29.2926  29.6145  35.1390  35.2988
    35.5540  36.1478  37.4998  38.0383  38.5018  38.5826  39.3728  39.5213
    39.9263  39.9412  44.7409  44.8815  45.5565  45.9459  46.1435  46.4279
    47.4693  47.5499  49.3745  50.0479  51.3895  51.8302  51.9889  51.9931
    53.1600  53.7459  55.4489  55.5771  55.9297  56.5627  56.8359  57.3978
    59.6946  59.8932  60.3155  60.4947  60.6896  60.7936  61.6015  61.6198
    65.3124  65.3675  65.4365  65.5570  67.4212  67.9405  68.0571  68.7156
    69.2567  69.2572  71.2946  71.6759  72.0149  72.4184  75.6386  76.1562
    76.8577  77.5010

          k = 0.0000 0.1000 0.0000 (  1647 PWs)   bands (ev):

   -71.9647 -68.3801 -38.5365 -38.3284 -37.3735 -34.7738 -34.4119 -33.9096
     7.7562   7.8841  10.8385  11.0496  11.3423  11.4739  13.4679  13.7547
    14.0051  14.2146  14.7987  14.9887  15.2265  15.7166  16.0074  16.3808
    16.3906  16.7206  17.6092  17.6450  18.5927  18.6496  19.9611  20.5791
    26.1069  26.8578  27.5143  27.9607  29.4013  29.7288  35.1920  35.3327
    35.4203  35.9871  37.9650  38.3050  38.3904  38.4872  39.2502  39.4726
    39.9846  40.0352  44.8319  44.8894  45.4957  46.0360  46.0834  46.4772
    47.4710  47.4972  48.9502  49.6697  51.3907  51.7112  51.8724  51.9873
    53.3661  53.9813  55.0765  55.0844  56.2482  56.9383  56.9449  57.5025
    59.5643  59.7686  60.2980  60.4959  61.0568  61.1514  62.0141  62.0157
    64.8287  65.0665  65.6537  65.7173  67.1428  67.6652  68.2949  68.9590
    69.6376  69.6420  71.6934  72.1092  72.4992  72.8933  75.1016  75.5937
    76.7045  77.3579

          k = 0.0000 0.1167 0.0000 (  1645 PWs)   bands (ev):

   -71.9644 -68.3798 -38.5377 -38.3283 -37.3749 -34.7753 -34.4117 -33.9112
     7.8463   7.9747  10.8798  11.1156  11.3737  11.5504  13.4458  13.7698
    14.0180  14.1656  14.7922  14.9705  15.2304  15.5591  15.9659  16.3193
    16.3820  16.6729  17.4800  17.6104  18.5455  18.6250  20.2338  20.8767
    25.9962  26.6825  27.2295  27.7584  29.5430  29.8785  35.2333  35.2589
    35.3592  35.7852  38.1111  38.2139  38.4714  38.8908  39.2036  39.3850
    40.0994  40.1843  44.7200  44.7454  45.4206  46.0074  46.1499  46.5498
    47.6263  47.6573  48.4945  49.2396  51.3909  51.5851  51.7502  52.0034
    53.5942  54.1650  54.6044  54.6773  56.6395  57.0577  57.2380  57.6636
    59.4209  59.6345  60.3031  60.5297  61.4737  61.5599  62.3777  62.3914
    64.3764  64.6077  65.9987  66.0578  66.8774  67.3995  68.5740  69.2415
    70.0634  70.0750  72.0368  72.4740  72.9748  73.3872  74.5455  75.0088
    76.5406  77.2034

          k = 0.0000 0.1333 0.0000 (  1639 PWs)   bands (ev):

   -71.9640 -68.3794 -38.5391 -38.3280 -37.3764 -34.7770 -34.4113 -33.9130
     7.9488   8.0778  10.9246  11.1924  11.4093  11.6367  13.4179  13.7904
    14.0260  14.1086  14.7867  14.9568  15.2368  15.3921  15.9205  16.2413
    16.3864  16.6266  17.3254  17.6140  18.4941  18.5975  20.5199  21.1814
    25.8210  26.4342  26.9860  27.6041  29.7122  30.0578  35.0371  35.2928
    35.3683  35.5488  37.9337  38.0539  38.8877  38.9441  39.3411  39.6002
    40.2643  40.3694  44.4096  44.4953  45.3311  45.9170  46.2833  46.6401
    47.9080  47.9291  48.1174  48.7850  51.3724  51.4560  51.6356  52.0156
    53.6905  53.8995  54.3015  54.7510  56.9133  57.2524  57.3740  57.9054
    59.2729  59.4996  60.3441  60.6158  61.9344  62.0125  62.7012  62.7281
    63.9590  64.1837  66.3962  66.4525  66.6347  67.1543  68.8922  69.5616
    70.5253  70.5464  72.3441  72.7898  73.3609  73.7815  74.0370  74.4210
    76.3694  77.0401

          k = 0.0000 0.1500 0.0000 (  1647 PWs)   bands (ev):

   -71.9637 -68.3790 -38.5408 -38.3279 -37.3783 -34.7791 -34.4112 -33.9152
     8.0630   8.1927  10.9728  11.2791  11.4492  11.7318  13.3847  13.8163
    14.0024  14.0700  14.7793  14.9518  15.2230  15.2459  15.8682  16.1582
    16.3930  16.5812  17.1810  17.6206  18.4395  18.5668  20.8166  21.4921
    25.5666  26.1228  26.8080  27.4973  29.9049  30.2621  34.7969  35.2621
    35.3248  35.3727  37.7745  37.9140  38.7751  39.0381  39.6942  40.1311
    40.4690  40.5976  44.0148  44.1371  45.2300  45.8146  46.4367  46.7492
    47.5087  48.2470  48.4248  48.4882  51.3237  51.3274  51.5395  52.0157
    53.3579  53.4127  54.4699  55.0722  57.0321  57.4146  57.5208  58.1298
    59.1260  59.3686  60.4424  60.7785  62.4338  62.5043  62.9851  63.0206
    63.5825  63.7977  66.4218  66.8328  66.8909  66.9378  69.2464  69.9154
    71.0127  71.0463  72.6156  73.0207  73.4569  73.5516  73.8749  74.1733
    76.1936  76.8727

          k = 0.0000 0.1667 0.0000 (  1645 PWs)   bands (ev):

   -71.9633 -68.3786 -38.5426 -38.3277 -37.3802 -34.7812 -34.4109 -33.9174
     8.1883   8.3187  11.0245  11.3745  11.4929  11.8344  13.3473  13.8471
[...]
    27.0607  27.3541  27.5586  27.9193  28.0960  28.1448  28.3716  28.5629
    34.1539  34.7253  36.3301  36.3652  38.0597  38.1450  38.7393  39.0492
    43.2481  43.2532  43.7407  43.8151  46.2698  46.4121  47.6789  48.0243
    48.6818  49.4854  50.1381  50.6572  52.6205  52.7486  53.4110  53.4982
    54.8364  54.9333  55.1245  55.2655  56.1467  56.4138  57.1469  57.2399
    58.9119  59.1867  60.3158  60.3509  65.2630  65.8160  66.9759  67.5308
    68.3181  68.3649  68.6981  69.1283  69.4226  69.9633  70.0136  70.1410
    73.0012  73.2439  73.7101  73.9308  74.0066  74.3280  74.6145  74.9511
    76.8379  77.1790

          k = 0.2667 0.2667 0.3610 (  1634 PWs)   bands (ev):

   -71.9560 -68.3702 -38.5749 -38.3238 -37.4170 -34.8196 -34.4060 -33.9610
    11.6343  11.8377  12.0479  12.1927  12.4749  12.7763  13.0425  13.3144
    13.3601  13.5835  14.0317  14.3868  14.5458  14.8340  15.1893  15.4284
    15.5845  17.3764  17.4981  17.5334  17.7725  18.8202  19.6427  20.2106
    27.3909  27.6485  27.8426  28.2101  28.3275  28.3511  28.7449  28.9690
    34.9197  35.4614  36.7105  36.7190  37.6250  37.8010  38.9845  39.3557
    43.1806  43.2136  43.2748  43.2887  46.0149  46.2036  47.4418  47.7772
    48.4916  49.2571  50.5060  51.0277  51.8291  52.0988  52.6101  53.1060
    54.8934  55.1578  55.3692  55.4238  55.6331  55.8784  56.4144  56.5070
    59.4497  59.6814  60.7806  60.7989  64.9383  65.5454  66.5987  67.1678
    67.5440  67.5721  68.9775  69.0812  69.2669  69.5170  69.7545  70.0494
    73.2375  73.7002  74.1000  74.1044  74.2572  74.3374  74.3966  74.7263
    77.1310  77.3678

          k = 0.2500 0.2500 0.3610 (  1634 PWs)   bands (ev):

   -71.9569 -68.3712 -38.5709 -38.3244 -37.4125 -34.8149 -34.4069 -33.9557
    11.6112  11.7648  11.9176  12.0622  12.4760  12.7513  13.0145  13.2302
    13.4826  13.5805  14.0213  14.3794  14.4815  14.7796  15.0916  15.3805
    15.5591  17.3503  17.3802  17.4879  17.6225  18.5103  19.4846  19.9796
    27.7321  27.9588  28.0782  28.5166  28.5341  28.6475  29.1385  29.3904
    35.6933  36.1822  36.8940  36.9010  37.2432  37.4692  39.4778  39.8371
    42.5726  42.7179  43.0483  43.1498  45.9639  46.1826  47.2867  47.6088
    48.1487  48.8692  50.7445  50.9559  51.2123  51.3694  52.2874  52.8982
    54.9501  55.1254  55.3199  55.3505  55.5199  55.5882  55.8295  55.8599
    60.0503  60.2549  61.2702  61.2713  64.5740  65.2255  66.1727  66.5797
    66.6361  66.8250  68.3534  68.3605  69.1857  69.8024  69.8728  70.3416
    72.7804  73.2333  73.9118  74.3825  74.5028  74.7401  75.2185  75.4855
    77.4241  77.6580

          k = 0.2333 0.2333 0.3610 (  1640 PWs)   bands (ev):

   -71.9578 -68.3723 -38.5670 -38.3253 -37.4081 -34.8102 -34.4080 -33.9505
    11.5864  11.5866  11.8514  11.8571  12.4323  12.7286  13.0284  13.1380
    13.5762  13.6097  14.0706  14.3914  14.4477  14.7612  15.0146  15.3376
    15.5238  17.1956  17.3850  17.3879  17.5696  18.2146  19.3318  19.7641
    28.0802  28.2855  28.3002  28.7270  28.8815  28.9670  29.5432  29.8129
    36.4486  36.7041  36.7701  36.9972  37.1218  37.3526  40.0885  40.4171
    41.9365  42.1197  42.7775  42.8957  46.0958  46.3197  47.1949  47.5030
    47.6787  48.3541  49.8622  50.2295  51.1855  51.6863  52.1792  52.8022
    54.6253  54.8324  54.8881  54.9877  55.1208  55.6604  55.8602  55.9842
    60.6720  60.8605  61.7668  61.7797  64.1875  64.8744  65.6537  65.7181
    65.7750  66.3433  67.3345  67.4089  69.2646  69.8568  70.3164  70.7453
    72.5207  72.9297  73.5983  74.0702  74.8561  75.0633  76.2388  76.5311
    77.7962  78.0184

          k = 0.2167 0.2167 0.3610 (  1648 PWs)   bands (ev):

   -71.9587 -68.3733 -38.5632 -38.3261 -37.4038 -34.8057 -34.4090 -33.9454
    11.3579  11.5330  11.6257  11.8294  12.3458  12.6761  13.0732  13.0739
    13.5657  13.7375  14.1365  14.4222  14.4431  14.7908  14.9576  15.3001
    15.4836  17.0398  17.2573  17.3985  17.5690  17.9320  19.1811  19.5620
    28.4313  28.5318  28.6275  28.9666  29.2397  29.3042  29.9513  30.2309
    36.3865  36.5924  37.0637  37.1359  37.3224  37.8924  40.7200  41.0183
    41.2903  41.5087  42.4500  42.5677  46.3507  46.5563  47.1114  47.1751
    47.4452  47.7639  48.9263  49.2580  51.4865  51.9875  52.1492  52.7601
    54.1354  54.2987  54.3257  54.3774  55.2309  55.8415  56.1125  56.2431
    61.2853  61.4632  62.2836  62.3000  63.7935  64.5061  64.8051  64.8806
    65.2684  65.8298  66.2588  66.3525  69.2442  69.8131  70.8383  71.2276
    72.4268  72.7891  73.2541  73.6951  75.1793  75.3497  76.8688  77.1220
    77.9043  78.0393

          k = 0.2000 0.2000 0.3610 (  1644 PWs)   bands (ev):

   -71.9595 -68.3742 -38.5592 -38.3267 -37.3993 -34.8011 -34.4100 -33.9402
    11.1147  11.3042  11.5586  11.8088  12.2354  12.5757  13.0572  13.1333
    13.5533  13.8627  14.1853  14.4613  14.4670  14.8764  14.9188  15.2683
    15.4457  16.8874  17.1308  17.4107  17.5835  17.6619  19.0308  19.3725
    28.7836  28.7840  28.9791  29.2436  29.5983  29.6628  30.3568  30.6407
    36.0681  36.3363  37.0979  37.2067  38.0948  38.6334  40.6342  40.8899
    41.2991  41.5634  42.1318  42.2216  46.4873  46.6634  46.9059  47.1409
    47.1627  47.4421  48.0466  48.3341  51.7848  52.1132  52.3103  52.7310
    53.6565  53.7201  53.7897  53.8378  55.4536  56.1013  56.3526  56.4782
    61.8640  62.0320  62.7761  62.7970  63.4100  64.0011  64.1398  64.1541
    64.7677  64.9689  65.2551  65.4682  69.1579  69.7072  71.4122  71.7662
    72.4388  72.6337  72.9898  73.2645  75.4625  75.6009  76.5510  76.7390
    78.5659  78.7343

          k = 0.1833 0.1833 0.3610 (  1648 PWs)   bands (ev):

   -71.9604 -68.3752 -38.5556 -38.3274 -37.3952 -34.7967 -34.4109 -33.9353
    10.8693  11.0357  11.5286  11.7902  12.1152  12.4461  13.0744  13.1969
    13.5446  13.9842  14.2095  14.4921  14.5199  14.8957  15.0095  15.2432
    15.4176  16.7407  17.0082  17.3924  17.4345  17.6022  18.8800  19.1958
    29.0609  29.1396  29.3298  29.5665  29.9534  30.0429  30.7547  31.0393
    35.7724  36.0860  37.1364  37.2633  38.8847  39.3944  39.9887  40.2809
    41.6300  41.6321  41.9991  42.1939  45.9111  46.4964  47.0233  47.1388
    47.2584  47.2874  47.4676  47.5185  52.0818  52.0936  52.5917  52.6924
    53.1881  53.2373  53.2788  53.3611  55.7527  56.4282  56.5585  56.6705
    62.3589  62.4984  62.8544  62.9611  63.0527  63.6240  63.7936  63.7965
    63.9384  64.0275  64.4034  64.9481  69.0419  69.5811  71.9727  72.2612
    72.3114  72.4783  72.8360  72.9914  75.7074  75.8143  75.9871  76.1760
    79.0388  79.3881

          k = 0.1667 0.1667 0.3610 (  1652 PWs)   bands (ev):

   -71.9612 -68.3761 -38.5520 -38.3283 -37.3912 -34.7925 -34.4119 -33.9305
    10.6293  10.7736  11.4978  11.7714  11.9941  12.3086  13.1067  13.2616
    13.5447  14.1021  14.2174  14.5255  14.5765  14.8846  15.1623  15.2331
    15.4046  16.6014  16.8899  17.1513  17.4413  17.6176  18.7284  19.0339
    29.3660  29.5012  29.6762  29.9337  30.3097  30.4375  31.1411  31.4243
    35.5060  35.8594  37.1834  37.3243  39.3519  39.6559  39.6789  40.1389
    41.3201  41.4143  42.1413  42.4713  45.3562  45.9442  46.6146  46.7950
    47.2254  47.4054  47.5399  47.6047  52.0512  52.3266  52.6144  52.6481
    52.7410  52.8982  52.9177  53.1217  56.1164  56.7082  56.8102  56.8222
    62.2563  62.2599  62.5457  62.6337  62.6410  63.0019  63.2247  63.3999
    63.9003  64.2340  64.2767  64.5595  68.9211  69.4639  71.6247  72.0845
    72.6462  72.6682  73.0452  73.1065  75.3825  75.5901  75.9413  76.0318
    79.2782  79.7900

          k = 0.1500 0.1500 0.3610 (  1664 PWs)   bands (ev):

   -71.9620 -68.3770 -38.5489 -38.3291 -37.3876 -34.7887 -34.4130 -33.9262
    10.4003  10.5258  11.4640  11.7502  11.8788  12.1742  13.1455  13.3272
    13.5563  14.2169  14.2177  14.5550  14.6342  14.8816  15.1976  15.3577
    15.4074  16.4715  16.7771  16.9144  17.4553  17.6229  18.5767  18.8900
    29.6998  29.8721  30.0273  30.3296  30.6702  30.8409  31.5126  31.7933
    35.2703  35.6606  37.2386  37.3893  38.7307  39.0905  40.3539  40.7738
    41.0148  41.1478  42.1194  42.5102  44.8575  45.4224  46.3051  46.3868
    47.3152  47.5639  47.7766  47.8905  51.9841  52.2620  52.2921  52.3729
    52.4479  52.6572  52.9454  53.4422  56.5228  56.8140  56.8943  57.2455
    61.3418  61.5055  61.7421  61.7755  62.2800  62.9878  63.0878  63.1845
    63.8707  64.0141  64.8342  65.0620  68.8074  69.3691  71.0070  71.4693
    72.8002  73.0998  73.4325  73.6366  74.8232  75.0516  76.1335  76.2148
    79.4633  79.9880

          k = 0.1333 0.1333 0.3610 (  1664 PWs)   bands (ev):

   -71.9627 -68.3777 -38.5458 -38.3297 -37.3840 -34.7850 -34.4138 -33.9221
    10.1868  10.2969  11.4272  11.7166  11.7821  12.0484  13.1877  13.3941
    13.5803  14.2159  14.3278  14.5793  14.6912  14.8844  15.1896  15.4195
    15.5287  16.3530  16.6727  16.6916  17.4690  17.6118  18.4254  18.7684
    30.0613  30.2547  30.3907  30.7390  31.0358  31.2488  31.8663  32.1445
    35.0655  35.4902  37.2991  37.4524  38.1286  38.5183  40.6134  40.7232
    41.0142  41.3311  41.9434  42.2805  44.4651  44.9954  46.3056  46.3128
    47.4264  47.6733  48.0199  48.1034  51.8729  51.9064  52.0243  52.1037
    52.2135  52.5842  53.3128  53.8506  56.8616  56.8620  56.9973  57.6726
    60.2193  60.4652  61.0923  61.2148  61.9556  62.5478  62.7604  63.0117
    63.9494  64.0933  65.4973  65.7428  68.7018  69.2973  70.3497  70.8019
    72.9917  73.2950  74.0086  74.2333  74.3141  74.5547  76.3113  76.3843
    79.5673  80.1081

          k = 0.1167 0.1167 0.3610 (  1664 PWs)   bands (ev):

   -71.9633 -68.3785 -38.5429 -38.3302 -37.3809 -34.7817 -34.4144 -33.9183
     9.9921  10.0898  11.3883  11.6428  11.7345  11.9341  13.2313  13.4627
    13.6159  14.2150  14.4311  14.6007  14.7460  14.8943  15.1839  15.4299
    15.6852  16.2465  16.4913  16.5819  17.4818  17.5798  18.2759  18.6727
    30.4476  30.6485  30.7691  31.1500  31.4069  31.6561  32.2005  32.4772
    34.8911  35.3477  37.3561  37.4346  37.6215  37.9694  40.3685  40.4408
    41.0424  41.1607  41.9412  42.0405  44.3504  44.8395  46.4569  46.5125
    47.5594  47.7995  48.1656  48.2091  51.4707  51.6187  51.8425  52.0641
    52.1958  52.5201  53.7618  54.3061  56.8552  56.8556  57.2993  57.9585
    59.2157  59.5449  60.5501  60.7251  61.6616  62.0412  62.4667  62.5597
    64.0671  64.2861  66.1460  66.4227  68.5986  69.2363  69.7194  70.1477
    73.2327  73.4512  73.9120  74.1174  74.5814  74.7982  76.4730  76.5400
    79.5825  79.9544

          k = 0.1000 0.1000 0.3610 (  1668 PWs)   bands (ev):

   -71.9638 -68.3791 -38.5405 -38.3307 -37.3781 -34.7787 -34.4152 -33.9150
     9.8189   9.9067  11.3492  11.5568  11.7100  11.8329  13.2745  13.5328
    13.6615  14.2169  14.5181  14.6239  14.7980  14.9160  15.1812  15.4287
    15.7950  16.1490  16.3409  16.5119  17.4932  17.5261  18.1294  18.6042
    30.8519  31.0507  31.1619  31.5511  31.7832  32.0554  32.5154  32.7931
    34.7457  35.2316  36.9369  37.3145  37.5353  37.6015  40.1179  40.1282
    40.4794  40.8208  41.6232  41.9944  44.6665  45.1029  46.7068  46.7841
    47.7135  47.9455  48.2003  48.2053  51.0814  51.2300  51.7932  52.1625
    52.3287  52.4828  54.2606  54.7972  56.7724  56.8019  57.1321  57.5877
    58.7479  59.3086  60.0671  60.2943  61.4010  61.5357  62.0644  62.2078
    64.1484  64.3915  66.6504  66.9815  68.4910  69.1414  69.2904  69.6355
    73.3117  73.4549  73.8338  73.9312  75.0956  75.3014  76.6192  76.6817
    79.5200  79.6568

          k = 0.0833 0.0833 0.3610 (  1668 PWs)   bands (ev):

   -71.9643 -68.3796 -38.5383 -38.3312 -37.3756 -34.7761 -34.4158 -33.9120
     9.6693   9.7494  11.3118  11.4793  11.6900  11.7460  13.3151  13.6033
    13.7145  14.2229  14.5738  14.6556  14.8471  14.9572  15.1809  15.4130
    15.7935  16.0538  16.3029  16.4693  17.4555  17.5028  17.9881  18.5600
    31.2627  31.4578  31.5620  31.9292  32.1642  32.4352  32.8161  33.0978
    34.6267  35.1397  36.3898  36.8680  37.5174  37.6274  39.6156  39.8797
    40.0851  40.2806  41.2382  41.7070  45.3045  45.6982  46.9728  47.0580
    47.8875  48.1031  48.1220  48.1549  50.7087  50.8598  51.7324  52.2549
    52.5897  52.5997  54.7913  55.3051  56.2993  56.6563  56.6612  56.7171
    58.9834  59.5613  59.7160  59.9046  61.0689  61.1773  61.5991  61.9852
    64.1548  64.4058  66.7416  67.1491  68.3797  69.1003  69.2514  69.5486
    72.9995  73.2977  74.0724  74.2698  75.5250  75.7229  76.7498  76.8083
    79.1926  79.3858

          k = 0.0667 0.0667 0.3610 (  1676 PWs)   bands (ev):

   -71.9648 -68.3801 -38.5365 -38.3319 -37.3735 -34.7740 -34.4165 -33.9096
     9.5449   9.6192  11.2781  11.4140  11.6725  11.6741  13.3507  13.6721
    13.7706  14.2342  14.5989  14.6874  14.8943  15.0229  15.1822  15.3878
    15.6809  15.9550  16.3761  16.4538  17.3762  17.5098  17.8550  18.5343
    31.6600  31.8676  31.9494  32.2722  32.5479  32.7786  33.1140  33.4004
    34.5283  35.0678  35.8611  36.3781  37.5445  37.6129  38.9749  39.5665
    39.8400  39.8678  40.8205  41.3309  46.0960  46.4557  47.2138  47.2999
    47.9961  48.0412  48.0850  48.3005  50.3534  50.5086  51.6546  52.2173
    52.9100  52.9558  55.2747  55.3008  55.6927  55.8395  56.5318  56.6103
    59.1599  59.3762  59.5634  60.1376  60.6771  60.9936  61.2079  61.8023
    64.0906  64.3403  66.3788  66.8243  68.2654  69.0574  69.7150  70.0102
    72.7257  73.0504  74.5444  74.7228  75.8421  76.0373  76.8627  76.9176
    78.5160  78.8890

          k = 0.0500 0.0500 0.3610 (  1680 PWs)   bands (ev):

   -71.9651 -68.3805 -38.5351 -38.3322 -37.3720 -34.7723 -34.4169 -33.9078
     9.4470   9.5169  11.2498  11.3624  11.6178  11.6578  13.3796  13.7354
    13.8237  14.2511  14.6096  14.7042  14.9419  15.1085  15.1843  15.3626
    15.5332  15.8519  16.4576  16.4840  17.2987  17.5127  17.7353  18.5209
    32.0133  32.2734  32.2874  32.5799  32.9282  33.0723  33.4187  33.7072
    34.4421  35.0099  35.3595  35.9117  37.5220  37.5234  38.3967  39.1412
    39.6413  39.7138  40.4336  40.9648  46.9470  47.2708  47.4107  47.4962
    47.8741  47.9309  48.2944  48.5024  50.0165  50.1774  51.5459  52.1234
    53.2965  53.3364  54.3239  54.6796  55.8821  56.2252  56.4947  56.5142
    58.7154  59.1264  59.8666  60.3443  60.6237  60.8537  60.9229  61.6642
    63.9745  64.2156  65.8586  66.3091  68.1560  68.9844  70.4359  70.7384
    72.5164  72.8541  75.1022  75.2604  75.9970  76.2007  76.9482  77.0016
    77.7772  78.0791

          k = 0.0333 0.0333 0.3610 (  1680 PWs)   bands (ev):

   -71.9653 -68.3808 -38.5341 -38.3324 -37.3708 -34.7711 -34.4172 -33.9064
     9.3764   9.4435  11.2285  11.3251  11.5773  11.6466  13.4007  13.7880
    13.8669  14.2719  14.6135  14.7075  14.9940  15.1864  15.2008  15.3460
    15.3882  15.7487  16.4702  16.5861  17.2331  17.5076  17.6403  18.5148
    32.2864  32.5133  32.6806  32.8595  33.2637  33.3405  33.7160  34.0050
    34.3551  34.9031  34.9542  35.4923  37.3413  37.3541  38.0346  38.8306
    39.5300  39.6072  40.1207  40.6638  47.5442  47.6246  47.7696  47.8072
    47.8378  48.0872  48.5205  48.7194  49.7010  49.8690  51.3673  51.9609
    53.4722  53.6417  53.7127  53.9023  56.2323  56.2718  56.5091  56.8064
    58.2833  58.7615  60.1473  60.2235  60.7345  60.7848  60.9964  61.5840
    63.8376  64.0642  65.3760  65.8216  68.0660  68.9180  71.1891  71.5130
    72.3888  72.7316  75.7163  75.7931  75.9291  76.0921  76.9739  77.0156
    77.2857  77.5003

          k = 0.0167 0.0167 0.3610 (  1670 PWs)   bands (ev):

   -71.9654 -68.3809 -38.5332 -38.3325 -37.3699 -34.7702 -34.4173 -33.9053
     9.3339   9.3992  11.2153  11.3026  11.5530  11.6397  13.4135  13.8237
    13.8945  14.2902  14.6138  14.7051  15.0553  15.1872  15.2625  15.2743
    15.3503  15.6564  16.4822  16.6606  17.1890  17.4884  17.5880  18.5125
    32.4539  32.6376  33.0375  33.0764  33.4422  33.6444  33.9572  34.2403
    34.2442  34.5582  34.8682  35.1888  37.0784  37.1329  37.9225  38.6748
    39.4703  39.5451  39.9139  40.4652  47.6137  47.6929  47.7277  47.7919
    48.5425  48.7501  48.7702  48.9398  49.4183  49.5945  51.0802  51.7042
    52.9401  53.3374  53.9478  53.9572  56.1760  56.3127  56.7876  57.1088
    57.9180  58.4632  60.0264  60.4275  60.6480  60.7864  61.2216  61.5889
    63.7237  63.9337  65.0370  65.4772  68.0071  68.8722  71.7640  72.1237
    72.4017  72.7391  75.4063  75.6446  76.3836  76.5212  76.9395  76.9500
    77.2221  77.3265

          k = 0.0000 0.0000 0.3610 (  1666 PWs)   bands (ev):

   -71.9654 -68.3809 -38.5329 -38.3325 -37.3695 -34.7698 -34.4174 -33.9050
     9.3197   9.3844  11.2109  11.2951  11.5449  11.6373  13.4178  13.8364
    13.9039  14.2977  14.6134  14.7035  15.1083  15.1761  15.1976  15.2941
    15.3712  15.6111  16.4871  16.6885  17.1733  17.4744  17.5753  18.5119
    32.5093  32.6761  33.1537  33.2217  33.5013  33.7957  34.0567  34.1364
    34.3413  34.4439  34.7837  35.0961  36.9499  37.0379  37.9030  38.6307
    39.4523  39.5249  39.8405  40.3957  47.6217  47.7012  47.7259  47.7898
    48.8821  48.9070  49.0630  49.0900  49.2557  49.4390  50.8792  51.5355
    52.7594  53.1720  54.0398  54.0569  56.1547  56.3020  56.9493  57.2331
    57.7469  58.3371  59.9862  60.4744  60.6223  60.8181  61.2745  61.6251
    63.6786  63.8805  64.9140  65.3523  67.9866  68.8560  71.9277  72.3036
    72.5132  72.8536  75.1480  75.3727  76.8995  76.9225  76.9541  76.9868
    77.1671  77.3382

     Writing all to output data dir ./work/pwscf.save/
 
     init_run     :      0.29s CPU      0.35s WALL (       1 calls)
     electrons    :    160.91s CPU    166.29s WALL (       1 calls)

     Called by init_run:
     wfcinit      :      0.00s CPU      0.00s WALL (       1 calls)
     wfcinit:atom :      0.01s CPU      0.01s WALL (     211 calls)
     wfcinit:wfcr :      4.61s CPU      4.87s WALL (     211 calls)
     potinit      :      0.01s CPU      0.02s WALL (       1 calls)
     hinit0       :      0.14s CPU      0.16s WALL (       1 calls)

     Called by electrons:
     c_bands      :    160.90s CPU    166.28s WALL (       1 calls)
     v_of_rho     :      0.01s CPU      0.01s WALL (       1 calls)
     v_h          :      0.00s CPU      0.00s WALL (       1 calls)
     v_xc         :      0.01s CPU      0.01s WALL (       1 calls)
     newd         :      0.12s CPU      0.15s WALL (       1 calls)

     Called by c_bands:
     init_us_2    :      0.01s CPU      0.01s WALL (     211 calls)
     init_us_2:cp :      0.01s CPU      0.01s WALL (     211 calls)
     cegterg      :    155.89s CPU    160.40s WALL (     439 calls)

     Called by sum_band:

     Called by *egterg:
     cdiaghg      :     73.53s CPU     73.64s WALL (    7362 calls)
     cegterg:over :      6.79s CPU      7.15s WALL (    7151 calls)
     cegterg:upda :      1.63s CPU      1.64s WALL (    7151 calls)
     cegterg:last :      4.44s CPU      4.46s WALL (    3640 calls)
     h_psi        :     65.25s CPU     69.44s WALL (    7801 calls)
     s_psi        :      4.60s CPU      4.64s WALL (    7801 calls)
     g_psi        :      0.16s CPU      0.16s WALL (    7151 calls)

     Called by h_psi:
     h_psi:calbec :      2.07s CPU      2.25s WALL (    7801 calls)
     vloc_psi     :     58.79s CPU     62.65s WALL (    7801 calls)
     add_vuspsi   :      4.21s CPU      4.36s WALL (    7801 calls)

     General routines
     calbec       :      2.04s CPU      2.22s WALL (    7801 calls)
     fft          :      0.01s CPU      0.02s WALL (      31 calls)
     ffts         :      0.00s CPU      0.00s WALL (       4 calls)
     fftw         :     51.51s CPU     54.92s WALL ( 1509268 calls)
     interpolate  :      0.00s CPU      0.00s WALL (       4 calls)
 
     Parallel routines
 
     PWSCF        :   2m46.11s CPU   3m 2.31s WALL

 
   This run was terminated on:  13:48:41   2Aug2023            

=------------------------------------------------------------------------------=
   JOB DONE.
=------------------------------------------------------------------------------=
