
     Program BANDS v.7.0 starts on 25Aug2023 at 16:50:10 

     This program is part of the open-source Quantum ESPRESSO suite
     for quantum simulation of materials; please cite
         "P. Giannozzi et al., J. Phys.:Condens. Matter 21 395502 (2009);
         "P. Giannozzi et al., J. Phys.:Condens. Matter 29 465901 (2017);
         "P. Giannozzi et al., J. Chem. Phys. 152 154105 (2020);
          URL http://www.quantum-espresso.org", 
     in publications or presentations arising from this work. More details at
     http://www.quantum-espresso.org/quote

     Parallel version (MPI), running on    12 processors

     MPI processes distributed on     1 nodes
     R & G space division:  proc/nbgrp/npool/nimage =      12
     55273 MiB available memory on the printing compute node when the environment starts
 

     Reading xml data from directory:

     ./work/pwscf.save/
     file Pt.rel-pbe-n-rrkjus_psl.0.1.UPF: wavefunction(s)  5D renormalized

     IMPORTANT: XC functional enforced from input :
     Exchange-correlation= PBE
                           (   1   4   3   4   0   0   0)
     Any further DFT definition will be discarded
     Please, verify this is what you really want

 
     Parallelization info
     --------------------
     sticks:   dense  smooth     PW     G-vecs:    dense   smooth      PW
     Min         137      45     14                 5843     1095     194
     Max         138      46     15                 5848     1100     197
     Sum        1649     545    177                70151    13173    2357
 
     Using Slab Decomposition
 

     Check: negative core charge=   -0.000005
     Reading collected, re-writing distributed wavefunctions
     high-symmetry point:  0.0000 0.0000 0.0000   x coordinate   0.0000
     high-symmetry point:  0.0000 0.5000 0.0000   x coordinate   0.5000
     high-symmetry point:  0.5000 0.5000 0.0000   x coordinate   1.0000
     high-symmetry point:  0.0000 0.0000 0.0000   x coordinate   1.7071
     high-symmetry point:  0.0000 0.0000 0.3610   x coordinate   2.0681
     high-symmetry point:  0.0000 0.5000 0.3610   x coordinate   2.5681
     high-symmetry point:  0.5000 0.5000 0.3610   x coordinate   3.0681
     high-symmetry point:  0.0000 0.0000 0.3610   x coordinate   3.7752

     Plottable bands (eV) written to file band.gnu
     Bands written to file band

 **************************************************************************

                    xk=(   0.00000,   0.00000,   0.00000  )

     the magnetic double point group is D_2h (mmm)  [C_2h (2/m) ]
     using the double point group C_2h (2/m) 
     there are  8 classes and  4 irreducible representations
     the character table:

       E     -E    C2    -C2   i     -i    s_h   -s_h 
                                                      
G_3+   1.00 -1.00  0.00  0.00  1.00 -1.00  0.00  0.00
G_4+   1.00 -1.00  0.00  0.00  1.00 -1.00  0.00  0.00
G_3-   1.00 -1.00  0.00  0.00 -1.00  1.00  0.00  0.00
G_4-   1.00 -1.00  0.00  0.00 -1.00  1.00  0.00  0.00

     imaginary part

       E     -E    C2    -C2   i     -i    s_h   -s_h 
                                                      
G_3+   0.00  0.00  1.00 -1.00  0.00  0.00  1.00 -1.00
G_4+   0.00  0.00 -1.00  1.00  0.00  0.00 -1.00  1.00
G_3-   0.00  0.00  1.00 -1.00  0.00  0.00 -1.00  1.00
G_4-   0.00  0.00 -1.00  1.00  0.00  0.00  1.00 -1.00

     the symmetry operations in each class and the name of the first element:

     E             1
                                                                 
     -E           -1
                                                                 
     C2            2
                                                                 
     -C2          -2
                                                                 
     i             3
                                                                 
     -i           -3
                                                                 
     s_h           4
                                                                 
     -s_h         -4
                                                                 

     Band symmetry, D_2h (mmm)  [C_2h (2/m) ] magnetic double point group,
     using C_2h (2/m) 

     e(  1 -  1) =    -71.96502  eV     1   --> G_4+           
     e(  2 -  2) =    -68.38063  eV     1   --> G_3+           
     e(  3 -  3) =    -38.68588  eV     1   --> G_3-           
     e(  4 -  4) =    -38.05571  eV     1   --> G_4-           
     e(  5 -  5) =    -37.49748  eV     1   --> G_3-           
     e(  6 -  6) =    -34.82030  eV     1   --> G_4-           
     e(  7 -  7) =    -34.29023  eV     1   --> G_3-           
     e(  8 -  8) =    -33.96528  eV     1   --> G_4-           
     e(  9 -  9) =      7.50053  eV     1   --> G_4+           
     e( 10 - 10) =      7.62694  eV     1   --> G_3+           
     e( 11 - 11) =     10.70082  eV     1   --> G_4+           
     e( 12 - 12) =     10.87989  eV     1   --> G_4+           
     e( 13 - 13) =     11.25166  eV     1   --> G_3+           
     e( 14 - 14) =     11.25911  eV     1   --> G_3+           
     e( 15 - 15) =     13.54407  eV     1   --> G_4+           
     e( 16 - 16) =     13.60425  eV     1   --> G_3+           
     e( 17 - 17) =     13.99217  eV     1   --> G_4+           
     e( 18 - 18) =     14.62481  eV     1   --> G_4+           
     e( 19 - 19) =     14.67848  eV     1   --> G_3+           
     e( 20 - 20) =     14.94673  eV     1   --> G_3+           
     e( 21 - 21) =     15.18461  eV     1   --> G_4+           
     e( 22 - 22) =     16.09807  eV     1   --> G_3+           
     e( 23 - 23) =     16.29435  eV     1   --> G_4+           
     e( 24 - 24) =     16.42243  eV     1   --> G_3+           
     e( 25 - 25) =     16.77620  eV     1   --> G_4+           
     e( 26 - 26) =     16.82961  eV     1   --> G_3+           
     e( 27 - 27) =     17.60823  eV     1   --> G_3+           
     e( 28 - 28) =     18.64126  eV     1   --> G_4+           
     e( 29 - 29) =     18.72936  eV     1   --> G_3+           
     e( 30 - 30) =     18.81360  eV     1   --> G_4+           
     e( 31 - 31) =     18.96467  eV     1   --> G_3-           
     e( 32 - 32) =     19.13746  eV     1   --> G_4-           
     e( 33 - 33) =     26.27926  eV     1   --> G_4+           
     e( 34 - 34) =     27.13395  eV     1   --> G_3+           
     e( 35 - 35) =     28.56457  eV     1   --> G_3-           
     e( 36 - 36) =     28.56993  eV     1   --> G_4-           
     e( 37 - 37) =     29.46461  eV     1   --> G_3-           
     e( 38 - 38) =     29.46478  eV     1   --> G_4-           
     e( 39 - 39) =     34.99204  eV     1   --> G_4-           
     e( 40 - 40) =     35.18786  eV     1   --> G_3-           
     e( 41 - 41) =     35.65433  eV     1   --> G_4+           
     e( 42 - 42) =     36.33393  eV     1   --> G_3+           
     e( 43 - 43) =     36.41000  eV     1   --> G_4+           
     e( 44 - 44) =     36.96818  eV     1   --> G_3+           
     e( 45 - 45) =     39.01159  eV     1   --> G_3-           
     e( 46 - 46) =     39.06322  eV     1   --> G_4-           
     e( 47 - 47) =     39.63686  eV     1   --> G_3-           
     e( 48 - 48) =     39.63803  eV     1   --> G_4-           
     e( 49 - 49) =     39.95902  eV     1   --> G_3-           
     e( 50 - 50) =     40.14143  eV     1   --> G_4-           
     e( 51 - 51) =     43.83423  eV     1   --> G_3+           
     e( 52 - 52) =     44.12712  eV     1   --> G_4+           
     e( 53 - 53) =     45.72361  eV     1   --> G_3+           
     e( 54 - 54) =     45.72629  eV     1   --> G_4+           
     e( 55 - 55) =     46.35548  eV     1   --> G_4+           
     e( 56 - 56) =     46.35607  eV     1   --> G_3+           
     e( 57 - 57) =     48.19518  eV     1   --> G_4+           
     e( 58 - 58) =     48.32541  eV     1   --> G_3+           
     e( 59 - 59) =     50.27853  eV     1   --> G_3-           
     e( 60 - 60) =     50.37246  eV     1   --> G_4-           
     e( 61 - 61) =     52.17680  eV     1   --> G_4-           
     e( 62 - 62) =     52.28938  eV     1   --> G_3-           
     e( 63 - 63) =     52.33810  eV     1   --> G_3-           
     e( 64 - 64) =     52.35088  eV     1   --> G_4-           
     e( 65 - 65) =     52.71995  eV     1   --> G_3-           
     e( 66 - 66) =     53.31042  eV     1   --> G_4-           
     e( 67 - 67) =     53.90149  eV     1   --> G_3+           
     e( 68 - 68) =     54.86275  eV     1   --> G_4+           
     e( 69 - 69) =     56.53068  eV     1   --> G_4+           
     e( 70 - 70) =     57.11149  eV     1   --> G_3+           
     e( 71 - 71) =     57.52159  eV     1   --> G_3-           
     e( 72 - 72) =     57.64410  eV     1   --> G_4-           
     e( 73 - 73) =     59.76809  eV     1   --> G_3+           
     e( 74 - 74) =     59.76947  eV     1   --> G_4+           
     e( 75 - 75) =     59.91107  eV     1   --> G_3+           
     e( 76 - 76) =     59.91178  eV     1   --> G_4+           
     e( 77 - 77) =     60.09455  eV     1   --> G_3-           
     e( 78 - 78) =     60.10096  eV     1   --> G_4-           
     e( 79 - 79) =     60.59931  eV     1   --> G_3-           
     e( 80 - 80) =     60.59946  eV     1   --> G_4-           
     e( 81 - 81) =     64.76313  eV     1   --> G_3-           
     e( 82 - 82) =     64.84528  eV     1   --> G_4-           
     e( 83 - 83) =     67.45785  eV     1   --> G_4+           
     e( 84 - 84) =     67.99645  eV     1   --> G_3-           
     e( 85 - 85) =     68.00015  eV     1   --> G_4-           
     e( 86 - 86) =     68.07928  eV     1   --> G_3+           
     e( 87 - 87) =     68.12861  eV     1   --> G_3+           
     e( 88 - 88) =     68.17378  eV     1   --> G_4+           
     e( 89 - 89) =     68.35224  eV     1   --> G_4+           
     e( 90 - 90) =     68.36422  eV     1   --> G_3+           
     e( 91 - 91) =     69.37874  eV     1   --> G_3-           
     e( 92 - 92) =     69.37889  eV     1   --> G_4-           
     e( 93 - 93) =     70.69646  eV     1   --> G_3+           
     e( 94 - 94) =     71.16495  eV     1   --> G_4+           
     e( 95 - 95) =     77.23641  eV     1   --> G_3+           
     e( 96 - 96) =     77.24662  eV     1   --> G_4+           
     e( 97 - 97) =     77.88387  eV     1   --> G_3+           
     e( 98 - 98) =     77.88826  eV     1   --> G_4+           

 **************************************************************************

 **************************************************************************

                    xk=(   0.00000,   0.01000,   0.00000  )

     the magnetic double point group is C_2v (mm2)  [C_s (m)    ]
     using the double point group C_s (m)    
     there are  4 classes and  2 irreducible representations
     the character table:

       E     -E    s     -s   
                              
G_3    1.00 -1.00  0.00  0.00
G_4    1.00 -1.00  0.00  0.00

     imaginary part

       E     -E    s     -s   
                              
G_3    0.00  0.00  1.00 -1.00
G_4    0.00  0.00 -1.00  1.00

     the symmetry operations in each class and the name of the first element:

     E             1
                                                                 
     -E           -1
                                                                 
     s             2
                                                                 
     -s           -2
                                                                 

     Band symmetry, C_2v (mm2)  [C_s (m)    ] magnetic double point group,
     using C_s (m)    

     e(  1 -  1) =    -71.96497  eV     1   --> G_4            
     e(  2 -  2) =    -68.38058  eV     1   --> G_3            
     e(  3 -  3) =    -38.68583  eV     1   --> G_4            
     e(  4 -  4) =    -38.05554  eV     1   --> G_3            
     e(  5 -  5) =    -37.49742  eV     1   --> G_4            
     e(  6 -  6) =    -34.82025  eV     1   --> G_3            
     e(  7 -  7) =    -34.29005  eV     1   --> G_4            
     e(  8 -  8) =    -33.96523  eV     1   --> G_3            
     e(  9 -  9) =      7.50314  eV     1   --> G_4            
     e( 10 - 10) =      7.62956  eV     1   --> G_3            
     e( 11 - 11) =     10.70238  eV     1   --> G_4            
     e( 12 - 12) =     10.88145  eV     1   --> G_4            
     e( 13 - 13) =     11.25267  eV     1   --> G_3            
     e( 14 - 14) =     11.26126  eV     1   --> G_3            
     e( 15 - 15) =     13.54319  eV     1   --> G_4            
     e( 16 - 16) =     13.60493  eV     1   --> G_3            
     e( 17 - 17) =     13.99271  eV     1   --> G_4            
     e( 18 - 18) =     14.62539  eV     1   --> G_4            
     e( 19 - 19) =     14.67637  eV     1   --> G_3            
     e( 20 - 20) =     14.94573  eV     1   --> G_3            
     e( 21 - 21) =     15.18466  eV     1   --> G_4            
     e( 22 - 22) =     16.09810  eV     1   --> G_3            
     e( 23 - 23) =     16.29003  eV     1   --> G_4            
     e( 24 - 24) =     16.42172  eV     1   --> G_3            
     e( 25 - 25) =     16.76798  eV     1   --> G_4            
     e( 26 - 26) =     16.82800  eV     1   --> G_3            
     e( 27 - 27) =     17.60816  eV     1   --> G_3            
     e( 28 - 28) =     18.64013  eV     1   --> G_4            
     e( 29 - 29) =     18.68437  eV     1   --> G_3            
     e( 30 - 30) =     18.81170  eV     1   --> G_4            
     e( 31 - 31) =     18.97872  eV     1   --> G_4            
     e( 32 - 32) =     19.18630  eV     1   --> G_3            
     e( 33 - 33) =     26.27814  eV     1   --> G_4            
     e( 34 - 34) =     27.13225  eV     1   --> G_3            
     e( 35 - 35) =     28.55595  eV     1   --> G_4            
     e( 36 - 36) =     28.56862  eV     1   --> G_3            
     e( 37 - 37) =     29.45564  eV     1   --> G_3            
     e( 38 - 38) =     29.46134  eV     1   --> G_4            
     e( 39 - 39) =     34.99438  eV     1   --> G_3            
     e( 40 - 40) =     35.18974  eV     1   --> G_4            
     e( 41 - 41) =     35.65983  eV     1   --> G_4            
     e( 42 - 42) =     36.33793  eV     1   --> G_3            
     e( 43 - 43) =     36.42198  eV     1   --> G_4            
     e( 44 - 44) =     36.97988  eV     1   --> G_3            
     e( 45 - 45) =     39.00558  eV     1   --> G_4            
     e( 46 - 46) =     39.06052  eV     1   --> G_3            
     e( 47 - 47) =     39.62980  eV     1   --> G_3            
     e( 48 - 48) =     39.63227  eV     1   --> G_4            
     e( 49 - 49) =     39.95326  eV     1   --> G_4            
     e( 50 - 50) =     40.13593  eV     1   --> G_3            
     e( 51 - 51) =     43.85480  eV     1   --> G_3            
     e( 52 - 52) =     44.14548  eV     1   --> G_4            
     e( 53 - 53) =     45.72134  eV     1   --> G_3            
     e( 54 - 54) =     45.72859  eV     1   --> G_4            
     e( 55 - 55) =     46.35292  eV     1   --> G_4            
     e( 56 - 56) =     46.35599  eV     1   --> G_3            
     e( 57 - 57) =     48.17620  eV     1   --> G_4            
     e( 58 - 58) =     48.30751  eV     1   --> G_3            
     e( 59 - 59) =     50.28483  eV     1   --> G_4            
     e( 60 - 60) =     50.36459  eV     1   --> G_3            
     e( 61 - 61) =     52.17134  eV     1   --> G_3            
     e( 62 - 62) =     52.27293  eV     1   --> G_4            
     e( 63 - 63) =     52.32054  eV     1   --> G_3            
     e( 64 - 64) =     52.33229  eV     1   --> G_4            
     e( 65 - 65) =     52.70810  eV     1   --> G_4            
     e( 66 - 66) =     53.31402  eV     1   --> G_3            
     e( 67 - 67) =     53.95419  eV     1   --> G_3            
     e( 68 - 68) =     54.90329  eV     1   --> G_4            
     e( 69 - 69) =     56.53607  eV     1   --> G_4            
     e( 70 - 70) =     57.11646  eV     1   --> G_3            
     e( 71 - 71) =     57.47401  eV     1   --> G_4            
     e( 72 - 72) =     57.59059  eV     1   --> G_3            
     e( 73 - 73) =     59.78476  eV     1   --> G_4            
     e( 74 - 74) =     59.81170  eV     1   --> G_3            
     e( 75 - 75) =     59.92527  eV     1   --> G_3            
     e( 76 - 76) =     59.94351  eV     1   --> G_4            
     e( 77 - 77) =     60.10252  eV     1   --> G_4            
     e( 78 - 78) =     60.10639  eV     1   --> G_3            
     e( 79 - 79) =     60.59346  eV     1   --> G_3            
     e( 80 - 80) =     60.59617  eV     1   --> G_4            
     e( 81 - 81) =     64.77124  eV     1   --> G_4            
     e( 82 - 82) =     64.85318  eV     1   --> G_3            
     e( 83 - 83) =     67.44795  eV     1   --> G_4            
     e( 84 - 84) =     67.78541  eV     1   --> G_4            
     e( 85 - 85) =     67.82074  eV     1   --> G_3            
     e( 86 - 86) =     68.09915  eV     1   --> G_3            
     e( 87 - 87) =     68.21879  eV     1   --> G_3            
     e( 88 - 88) =     68.28667  eV     1   --> G_4            
     e( 89 - 89) =     68.36320  eV     1   --> G_3            
     e( 90 - 90) =     68.44200  eV     1   --> G_4            
     e( 91 - 91) =     69.40109  eV     1   --> G_4            
     e( 92 - 92) =     69.45260  eV     1   --> G_3            
     e( 93 - 93) =     70.72240  eV     1   --> G_3            
     e( 94 - 94) =     71.18927  eV     1   --> G_4            
     e( 95 - 95) =     77.21750  eV     1   --> G_4            
     e( 96 - 96) =     77.22906  eV     1   --> G_3            
     e( 97 - 97) =     77.85223  eV     1   --> G_3            
     e( 98 - 98) =     77.88129  eV     1   --> G_4            

 **************************************************************************

 **************************************************************************

                    xk=(   0.00000,   0.02000,   0.00000  )

     Band symmetry, C_2v (mm2)  [C_s (m)    ] magnetic double point group,
     using C_s (m)    

     e(  1 -  1) =    -71.96495  eV     1   --> G_4            
     e(  2 -  2) =    -68.38056  eV     1   --> G_3            
     e(  3 -  3) =    -38.68591  eV     1   --> G_4            
     e(  4 -  4) =    -38.05552  eV     1   --> G_3            
     e(  5 -  5) =    -37.49759  eV     1   --> G_4            
     e(  6 -  6) =    -34.82036  eV     1   --> G_3            
     e(  7 -  7) =    -34.29003  eV     1   --> G_4            
     e(  8 -  8) =    -33.96541  eV     1   --> G_3            
     e(  9 -  9) =      7.51094  eV     1   --> G_4            
     e( 10 - 10) =      7.63741  eV     1   --> G_3            
     e( 11 - 11) =     10.70706  eV     1   --> G_4            
     e( 12 - 12) =     10.88612  eV     1   --> G_4            
     e( 13 - 13) =     11.25558  eV     1   --> G_3            
     e( 14 - 14) =     11.26783  eV     1   --> G_3            
     e( 15 - 15) =     13.54052  eV     1   --> G_4            
     e( 16 - 16) =     13.60697  eV     1   --> G_3            
     e( 17 - 17) =     13.99432  eV     1   --> G_4            
     e( 18 - 18) =     14.62712  eV     1   --> G_4            
     e( 19 - 19) =     14.67003  eV     1   --> G_3            
     e( 20 - 20) =     14.94271  eV     1   --> G_3            
     e( 21 - 21) =     15.18481  eV     1   --> G_4            
     e( 22 - 22) =     16.09813  eV     1   --> G_3            
     e( 23 - 23) =     16.27687  eV     1   --> G_4            
     e( 24 - 24) =     16.41962  eV     1   --> G_3            
     e( 25 - 25) =     16.74429  eV     1   --> G_4            
     e( 26 - 26) =     16.82320  eV     1   --> G_3            
     e( 27 - 27) =     17.60795  eV     1   --> G_3            
     e( 28 - 28) =     18.58479  eV     1   --> G_3            
     e( 29 - 29) =     18.63677  eV     1   --> G_4            
     e( 30 - 30) =     18.80655  eV     1   --> G_4            
     e( 31 - 31) =     19.01945  eV     1   --> G_4            
     e( 32 - 32) =     19.29740  eV     1   --> G_3            
     e( 33 - 33) =     26.27467  eV     1   --> G_4            
     e( 34 - 34) =     27.12704  eV     1   --> G_3            
     e( 35 - 35) =     28.52860  eV     1   --> G_4            
     e( 36 - 36) =     28.56331  eV     1   --> G_3            
     e( 37 - 37) =     29.42947  eV     1   --> G_3            
     e( 38 - 38) =     29.45294  eV     1   --> G_4            
     e( 39 - 39) =     35.00139  eV     1   --> G_3            
     e( 40 - 40) =     35.19536  eV     1   --> G_4            
     e( 41 - 41) =     35.67363  eV     1   --> G_4            
     e( 42 - 42) =     36.34713  eV     1   --> G_3            
     e( 43 - 43) =     36.45988  eV     1   --> G_4            
     e( 44 - 44) =     37.01715  eV     1   --> G_3            
     e( 45 - 45) =     38.98641  eV     1   --> G_4            
     e( 46 - 46) =     39.05078  eV     1   --> G_3            
     e( 47 - 47) =     39.60723  eV     1   --> G_3            
     e( 48 - 48) =     39.61935  eV     1   --> G_4            
     e( 49 - 49) =     39.93699  eV     1   --> G_4            
     e( 50 - 50) =     40.11994  eV     1   --> G_3            
     e( 51 - 51) =     43.91494  eV     1   --> G_3            
     e( 52 - 52) =     44.19914  eV     1   --> G_4            
     e( 53 - 53) =     45.71450  eV     1   --> G_3            
     e( 54 - 54) =     45.73554  eV     1   --> G_4            
     e( 55 - 55) =     46.34528  eV     1   --> G_4            
     e( 56 - 56) =     46.35588  eV     1   --> G_3            
     e( 57 - 57) =     48.12114  eV     1   --> G_4            
     e( 58 - 58) =     48.25524  eV     1   --> G_3            
     e( 59 - 59) =     50.30083  eV     1   --> G_4            
     e( 60 - 60) =     50.33760  eV     1   --> G_3            
     e( 61 - 61) =     52.15492  eV     1   --> G_3            
     e( 62 - 62) =     52.21603  eV     1   --> G_4            
     e( 63 - 63) =     52.24261  eV     1   --> G_3            
     e( 64 - 64) =     52.31514  eV     1   --> G_4            
     e( 65 - 65) =     52.68706  eV     1   --> G_4            
     e( 66 - 66) =     53.32845  eV     1   --> G_3            
     e( 67 - 67) =     54.09577  eV     1   --> G_3            
     e( 68 - 68) =     55.01698  eV     1   --> G_4            
     e( 69 - 69) =     56.55190  eV     1   --> G_4            
     e( 70 - 70) =     57.13081  eV     1   --> G_3            
     e( 71 - 71) =     57.34125  eV     1   --> G_4            
     e( 72 - 72) =     57.44373  eV     1   --> G_3            
     e( 73 - 73) =     59.82829  eV     1   --> G_4            
     e( 74 - 74) =     59.91309  eV     1   --> G_3            
     e( 75 - 75) =     59.96712  eV     1   --> G_3            
     e( 76 - 76) =     59.99566  eV     1   --> G_4            
     e( 77 - 77) =     60.13874  eV     1   --> G_3            
     e( 78 - 78) =     60.16115  eV     1   --> G_4            
     e( 79 - 79) =     60.57587  eV     1   --> G_3            
     e( 80 - 80) =     60.58732  eV     1   --> G_4            
     e( 81 - 81) =     64.79569  eV     1   --> G_4            
     e( 82 - 82) =     64.87700  eV     1   --> G_3            
     e( 83 - 83) =     67.32990  eV     1   --> G_4            
     e( 84 - 84) =     67.54240  eV     1   --> G_3            
     e( 85 - 85) =     67.60180  eV     1   --> G_4            
     e( 86 - 86) =     68.13130  eV     1   --> G_3            
     e( 87 - 87) =     68.26647  eV     1   --> G_3            
     e( 88 - 88) =     68.34817  eV     1   --> G_4            
     e( 89 - 89) =     68.37579  eV     1   --> G_3            
     e( 90 - 90) =     68.60105  eV     1   --> G_4            
     e( 91 - 91) =     69.49641  eV     1   --> G_4            
     e( 92 - 92) =     69.64986  eV     1   --> G_3            
     e( 93 - 93) =     70.79772  eV     1   --> G_3            
     e( 94 - 94) =     71.25907  eV     1   --> G_4            
     e( 95 - 95) =     77.13164  eV     1   --> G_4            
     e( 96 - 96) =     77.20685  eV     1   --> G_3            
     e( 97 - 97) =     77.75991  eV     1   --> G_3            
     e( 98 - 98) =     77.86094  eV     1   --> G_4            

 **************************************************************************

 **************************************************************************

                    xk=(   0.00000,   0.03000,   0.00000  )

     Band symmetry, C_2v (mm2)  [C_s (m)    ] magnetic double point group,
     using C_s (m)    

     e(  1 -  1) =    -71.96490  eV     1   --> G_4            
     e(  2 -  2) =    -68.38051  eV     1   --> G_3            
     e(  3 -  3) =    -38.68604  eV     1   --> G_4            
     e(  4 -  4) =    -38.05550  eV     1   --> G_3            
     e(  5 -  5) =    -37.49787  eV     1   --> G_4            
     e(  6 -  6) =    -34.82055  eV     1   --> G_3            
     e(  7 -  7) =    -34.29000  eV     1   --> G_4            
     e(  8 -  8) =    -33.96572  eV     1   --> G_3            
     e(  9 -  9) =      7.52392  eV     1   --> G_4            
     e( 10 - 10) =      7.65047  eV     1   --> G_3            
     e( 11 - 11) =     10.71475  eV     1   --> G_4            
     e( 12 - 12) =     10.89398  eV     1   --> G_4            
     e( 13 - 13) =     11.26022  eV     1   --> G_3            
     e( 14 - 14) =     11.27895  eV     1   --> G_3            
     e( 15 - 15) =     13.53606  eV     1   --> G_4            
     e( 16 - 16) =     13.61036  eV     1   --> G_3            
     e( 17 - 17) =     13.99698  eV     1   --> G_4            
     e( 18 - 18) =     14.63002  eV     1   --> G_4            
     e( 19 - 19) =     14.65939  eV     1   --> G_3            
     e( 20 - 20) =     14.93779  eV     1   --> G_3            
     e( 21 - 21) =     15.18505  eV     1   --> G_4            
     e( 22 - 22) =     16.09804  eV     1   --> G_3            
     e( 23 - 23) =     16.25427  eV     1   --> G_4            
     e( 24 - 24) =     16.41620  eV     1   --> G_3            
     e( 25 - 25) =     16.70777  eV     1   --> G_4            
     e( 26 - 26) =     16.81529  eV     1   --> G_3            
     e( 27 - 27) =     17.60762  eV     1   --> G_3            
     e( 28 - 28) =     18.46762  eV     1   --> G_3            
     e( 29 - 29) =     18.63135  eV     1   --> G_4            
     e( 30 - 30) =     18.79902  eV     1   --> G_4            
     e( 31 - 31) =     19.08390  eV     1   --> G_4            
     e( 32 - 32) =     19.43372  eV     1   --> G_3            
     e( 33 - 33) =     26.26873  eV     1   --> G_4            
     e( 34 - 34) =     27.11806  eV     1   --> G_3            
     e( 35 - 35) =     28.47985  eV     1   --> G_4            
     e( 36 - 36) =     28.55101  eV     1   --> G_3            
     e( 37 - 37) =     29.39127  eV     1   --> G_3            
     e( 38 - 38) =     29.44429  eV     1   --> G_4            
     e( 39 - 39) =     35.01294  eV     1   --> G_3            
     e( 40 - 40) =     35.20458  eV     1   --> G_4            
     e( 41 - 41) =     35.68871  eV     1   --> G_4            
     e( 42 - 42) =     36.35437  eV     1   --> G_3            
     e( 43 - 43) =     36.52864  eV     1   --> G_4            
     e( 44 - 44) =     37.08527  eV     1   --> G_3            
     e( 45 - 45) =     38.95177  eV     1   --> G_4            
     e( 46 - 46) =     39.02981  eV     1   --> G_3            
     e( 47 - 47) =     39.57683  eV     1   --> G_3            
     e( 48 - 48) =     39.60053  eV     1   --> G_4            
     e( 49 - 49) =     39.91336  eV     1   --> G_4            
     e( 50 - 50) =     40.09496  eV     1   --> G_3            
     e( 51 - 51) =     44.01018  eV     1   --> G_3            
     e( 52 - 52) =     44.28401  eV     1   --> G_4            
     e( 53 - 53) =     45.70312  eV     1   --> G_3            
     e( 54 - 54) =     45.74732  eV     1   --> G_4            
     e( 55 - 55) =     46.33263  eV     1   --> G_4            
     e( 56 - 56) =     46.35619  eV     1   --> G_3            
     e( 57 - 57) =     48.03523  eV     1   --> G_4            
     e( 58 - 58) =     48.17268  eV     1   --> G_3            
     e( 59 - 59) =     50.28478  eV     1   --> G_3            
     e( 60 - 60) =     50.32044  eV     1   --> G_4            
     e( 61 - 61) =     52.11179  eV     1   --> G_4            
     e( 62 - 62) =     52.12462  eV     1   --> G_3            
     e( 63 - 63) =     52.14977  eV     1   --> G_3            
     e( 64 - 64) =     52.28710  eV     1   --> G_4            
     e( 65 - 65) =     52.68363  eV     1   --> G_4            
     e( 66 - 66) =     53.35862  eV     1   --> G_3            
     e( 67 - 67) =     54.29624  eV     1   --> G_3            
     e( 68 - 68) =     55.18620  eV     1   --> G_4            
     e( 69 - 69) =     56.57758  eV     1   --> G_4            
     e( 70 - 70) =     57.14564  eV     1   --> G_4            
     e( 71 - 71) =     57.14977  eV     1   --> G_3            
     e( 72 - 72) =     57.23560  eV     1   --> G_3            
     e( 73 - 73) =     59.89742  eV     1   --> G_4            
     e( 74 - 74) =     59.99491  eV     1   --> G_3            
     e( 75 - 75) =     60.00071  eV     1   --> G_4            
     e( 76 - 76) =     60.02110  eV     1   --> G_3            
     e( 77 - 77) =     60.26177  eV     1   --> G_3            
     e( 78 - 78) =     60.31630  eV     1   --> G_4            
     e( 79 - 79) =     60.54819  eV     1   --> G_3            
     e( 80 - 80) =     60.57534  eV     1   --> G_4            
     e( 81 - 81) =     64.83684  eV     1   --> G_4            
     e( 82 - 82) =     64.91709  eV     1   --> G_3            
     e( 83 - 83) =     67.03693  eV     1   --> G_4            
     e( 84 - 84) =     67.23397  eV     1   --> G_3            
     e( 85 - 85) =     67.59729  eV     1   --> G_4            
     e( 86 - 86) =     68.17075  eV     1   --> G_3            
     e( 87 - 87) =     68.22264  eV     1   --> G_3            
     e( 88 - 88) =     68.41687  eV     1   --> G_4            
     e( 89 - 89) =     68.44089  eV     1   --> G_3            
     e( 90 - 90) =     68.65439  eV     1   --> G_4            
     e( 91 - 91) =     69.70287  eV     1   --> G_4            
     e( 92 - 92) =     69.92165  eV     1   --> G_3            
     e( 93 - 93) =     70.91711  eV     1   --> G_3            
     e( 94 - 94) =     71.36709  eV     1   --> G_4            
     e( 95 - 95) =     76.99337  eV     1   --> G_4            
     e( 96 - 96) =     77.16901  eV     1   --> G_3            
     e( 97 - 97) =     77.61434  eV     1   --> G_3            
     e( 98 - 98) =     77.82847  eV     1   --> G_4            

 **************************************************************************

 **************************************************************************

                    xk=(   0.00000,   0.04000,   0.00000  )

     Band symmetry, C_2v (mm2)  [C_s (m)    ] magnetic double point group,
     using C_s (m)    

     e(  1 -  1) =    -71.96485  eV     1   --> G_4            
     e(  2 -  2) =    -68.38044  eV     1   --> G_3            
     e(  3 -  3) =    -38.68624  eV     1   --> G_4            
     e(  4 -  4) =    -38.05546  eV     1   --> G_3            
     e(  5 -  5) =    -37.49825  eV     1   --> G_4            
     e(  6 -  6) =    -34.82081  eV     1   --> G_3            
     e(  7 -  7) =    -34.28995  eV     1   --> G_4            
     e(  8 -  8) =    -33.96614  eV     1   --> G_3            
     e(  9 -  9) =      7.54205  eV     1   --> G_4            
     e( 10 - 10) =      7.66871  eV     1   --> G_3            
     e( 11 - 11) =     10.72533  eV     1   --> G_4            
     e( 12 - 12) =     10.90512  eV     1   --> G_4            
     e( 13 - 13) =     11.26658  eV     1   --> G_3            
     e( 14 - 14) =     11.29461  eV     1   --> G_3            
     e( 15 - 15) =     13.52981  eV     1   --> G_4            
     e( 16 - 16) =     13.61508  eV     1   --> G_3            
     e( 17 - 17) =     14.00067  eV     1   --> G_4            
     e( 18 - 18) =     14.63409  eV     1   --> G_4            
     e( 19 - 19) =     14.64441  eV     1   --> G_3            
     e( 20 - 20) =     14.93113  eV     1   --> G_3            
     e( 21 - 21) =     15.18542  eV     1   --> G_4            
     e( 22 - 22) =     16.09760  eV     1   --> G_3            
     e( 23 - 23) =     16.22133  eV     1   --> G_4            
     e( 24 - 24) =     16.41161  eV     1   --> G_3            
     e( 25 - 25) =     16.66219  eV     1   --> G_4            
     e( 26 - 26) =     16.80442  eV     1   --> G_3            
     e( 27 - 27) =     17.60719  eV     1   --> G_3            
     e( 28 - 28) =     18.34616  eV     1   --> G_3            
     e( 29 - 29) =     18.62397  eV     1   --> G_4            
     e( 30 - 30) =     18.78947  eV     1   --> G_4            
     e( 31 - 31) =     19.16889  eV     1   --> G_4            
     e( 32 - 32) =     19.58196  eV     1   --> G_3            
     e( 33 - 33) =     26.26006  eV     1   --> G_4            
     e( 34 - 34) =     27.10484  eV     1   --> G_3            
     e( 35 - 35) =     28.40658  eV     1   --> G_4            
     e( 36 - 36) =     28.52643  eV     1   --> G_3            
     e( 37 - 37) =     29.34913  eV     1   --> G_3            
     e( 38 - 38) =     29.44150  eV     1   --> G_4            
     e( 39 - 39) =     35.02884  eV     1   --> G_3            
     e( 40 - 40) =     35.21716  eV     1   --> G_4            
     e( 41 - 41) =     35.69664  eV     1   --> G_4            
     e( 42 - 42) =     36.35167  eV     1   --> G_3            
     e( 43 - 43) =     36.63348  eV     1   --> G_4            
     e( 44 - 44) =     37.18933  eV     1   --> G_3            
     e( 45 - 45) =     38.89912  eV     1   --> G_4            
     e( 46 - 46) =     38.99156  eV     1   --> G_3            
     e( 47 - 47) =     39.54797  eV     1   --> G_3            
     e( 48 - 48) =     39.57770  eV     1   --> G_4            
     e( 49 - 49) =     39.88765  eV     1   --> G_4            
     e( 50 - 50) =     40.06306  eV     1   --> G_3            
     e( 51 - 51) =     44.13368  eV     1   --> G_3            
     e( 52 - 52) =     44.39355  eV     1   --> G_4            
     e( 53 - 53) =     45.68719  eV     1   --> G_3            
     e( 54 - 54) =     45.76421  eV     1   --> G_4            
     e( 55 - 55) =     46.31516  eV     1   --> G_4            
     e( 56 - 56) =     46.35761  eV     1   --> G_3            
     e( 57 - 57) =     47.92614  eV     1   --> G_4            
     e( 58 - 58) =     48.06602  eV     1   --> G_3            
     e( 59 - 59) =     50.19780  eV     1   --> G_3            
     e( 60 - 60) =     50.33379  eV     1   --> G_4            
     e( 61 - 61) =     51.97147  eV     1   --> G_4            
     e( 62 - 62) =     52.05118  eV     1   --> G_3            
     e( 63 - 63) =     52.09796  eV     1   --> G_3            
     e( 64 - 64) =     52.24883  eV     1   --> G_4            
     e( 65 - 65) =     52.70895  eV     1   --> G_4            
     e( 66 - 66) =     53.40585  eV     1   --> G_3            
     e( 67 - 67) =     54.53183  eV     1   --> G_3            
     e( 68 - 68) =     55.39159  eV     1   --> G_4            
     e( 69 - 69) =     56.61176  eV     1   --> G_4            
     e( 70 - 70) =     56.91034  eV     1   --> G_4            
     e( 71 - 71) =     56.97208  eV     1   --> G_3            
     e( 72 - 72) =     57.19147  eV     1   --> G_3            
     e( 73 - 73) =     59.96717  eV     1   --> G_4            
     e( 74 - 74) =     60.00210  eV     1   --> G_4            
     e( 75 - 75) =     60.00575  eV     1   --> G_3            
     e( 76 - 76) =     60.11175  eV     1   --> G_3            
     e( 77 - 77) =     60.47512  eV     1   --> G_3            
     e( 78 - 78) =     60.50430  eV     1   --> G_4            
     e( 79 - 79) =     60.51306  eV     1   --> G_3            
     e( 80 - 80) =     60.58423  eV     1   --> G_4            
     e( 81 - 81) =     64.89524  eV     1   --> G_4            
     e( 82 - 82) =     64.97400  eV     1   --> G_3            
     e( 83 - 83) =     66.70862  eV     1   --> G_4            
     e( 84 - 84) =     66.91368  eV     1   --> G_3            
     e( 85 - 85) =     67.64324  eV     1   --> G_4            
     e( 86 - 86) =     68.09258  eV     1   --> G_3            
     e( 87 - 87) =     68.26026  eV     1   --> G_3            
     e( 88 - 88) =     68.48484  eV     1   --> G_4            
     e( 89 - 89) =     68.53705  eV     1   --> G_3            
     e( 90 - 90) =     68.63199  eV     1   --> G_4            
     e( 91 - 91) =     69.99440  eV     1   --> G_4            
     e( 92 - 92) =     70.22652  eV     1   --> G_3            
     e( 93 - 93) =     71.07585  eV     1   --> G_3            
     e( 94 - 94) =     71.50503  eV     1   --> G_4            
     e( 95 - 95) =     76.80907  eV     1   --> G_4            
     e( 96 - 96) =     77.11172  eV     1   --> G_3            
     e( 97 - 97) =     77.42830  eV     1   --> G_3            
     e( 98 - 98) =     77.78521  eV     1   --> G_4            

 **************************************************************************

 **************************************************************************

                    xk=(   0.00000,   0.05000,   0.00000  )

     Band symmetry, C_2v (mm2)  [C_s (m)    ] magnetic double point group,
     using C_s (m)    

     e(  1 -  1) =    -71.96479  eV     1   --> G_4            
     e(  2 -  2) =    -68.38037  eV     1   --> G_3            
     e(  3 -  3) =    -38.68659  eV     1   --> G_4            
     e(  4 -  4) =    -38.05543  eV     1   --> G_3            
     e(  5 -  5) =    -37.49883  eV     1   --> G_4            
     e(  6 -  6) =    -34.82123  eV     1   --> G_3            
     e(  7 -  7) =    -34.28990  eV     1   --> G_4            
     e(  8 -  8) =    -33.96676  eV     1   --> G_3            
     e(  9 -  9) =      7.56530  eV     1   --> G_4            
     e( 10 - 10) =      7.69210  eV     1   --> G_3            
     e( 11 - 11) =     10.73860  eV     1   --> G_4            
     e( 12 - 12) =     10.91968  eV     1   --> G_4            
     e( 13 - 13) =     11.27467  eV     1   --> G_3            
     e( 14 - 14) =     11.31474  eV     1   --> G_3            
     e( 15 - 15) =     13.52175  eV     1   --> G_4            
     e( 16 - 16) =     13.62113  eV     1   --> G_3            
     e( 17 - 17) =     14.00534  eV     1   --> G_4            
     e( 18 - 18) =     14.62503  eV     1   --> G_3            
     e( 19 - 19) =     14.63932  eV     1   --> G_4            
     e( 20 - 20) =     14.92290  eV     1   --> G_3            
     e( 21 - 21) =     15.18591  eV     1   --> G_4            
     e( 22 - 22) =     16.09647  eV     1   --> G_3            
     e( 23 - 23) =     16.17714  eV     1   --> G_4            
     e( 24 - 24) =     16.40606  eV     1   --> G_3            
     e( 25 - 25) =     16.61162  eV     1   --> G_4            
     e( 26 - 26) =     16.79079  eV     1   --> G_3            
     e( 27 - 27) =     17.60669  eV     1   --> G_3            
     e( 28 - 28) =     18.22499  eV     1   --> G_3            
     e( 29 - 29) =     18.61464  eV     1   --> G_4            
     e( 30 - 30) =     18.77804  eV     1   --> G_4            
     e( 31 - 31) =     19.27129  eV     1   --> G_4            
     e( 32 - 32) =     19.73737  eV     1   --> G_3            
     e( 33 - 33) =     26.24823  eV     1   --> G_4            
     e( 34 - 34) =     27.08664  eV     1   --> G_3            
     e( 35 - 35) =     28.30709  eV     1   --> G_4            
     e( 36 - 36) =     28.48287  eV     1   --> G_3            
     e( 37 - 37) =     29.31328  eV     1   --> G_3            
     e( 38 - 38) =     29.44989  eV     1   --> G_4            
     e( 39 - 39) =     35.04880  eV     1   --> G_3            
     e( 40 - 40) =     35.23274  eV     1   --> G_4            
     e( 41 - 41) =     35.69106  eV     1   --> G_4            
     e( 42 - 42) =     36.33363  eV     1   --> G_3            
     e( 43 - 43) =     36.77690  eV     1   --> G_4            
     e( 44 - 44) =     37.33113  eV     1   --> G_3            
     e( 45 - 45) =     38.82744  eV     1   --> G_4            
     e( 46 - 46) =     38.93114  eV     1   --> G_3            
     e( 47 - 47) =     39.52901  eV     1   --> G_3            
     e( 48 - 48) =     39.54977  eV     1   --> G_4            
     e( 49 - 49) =     39.86735  eV     1   --> G_4            
     e( 50 - 50) =     40.02686  eV     1   --> G_3            
     e( 51 - 51) =     44.27670  eV     1   --> G_3            
     e( 52 - 52) =     44.51891  eV     1   --> G_4            
     e( 53 - 53) =     45.66675  eV     1   --> G_3            
     e( 54 - 54) =     45.78659  eV     1   --> G_4            
     e( 55 - 55) =     46.29316  eV     1   --> G_4            
     e( 56 - 56) =     46.36111  eV     1   --> G_3            
     e( 57 - 57) =     47.80340  eV     1   --> G_4            
     e( 58 - 58) =     47.94311  eV     1   --> G_3            
     e( 59 - 59) =     50.07103  eV     1   --> G_3            
     e( 60 - 60) =     50.32787  eV     1   --> G_4            
     e( 61 - 61) =     51.81876  eV     1   --> G_4            
     e( 62 - 62) =     51.98305  eV     1   --> G_3            
     e( 63 - 63) =     52.05496  eV     1   --> G_3            
     e( 64 - 64) =     52.20135  eV     1   --> G_4            
     e( 65 - 65) =     52.76030  eV     1   --> G_4            
     e( 66 - 66) =     53.46984  eV     1   --> G_3            
     e( 67 - 67) =     54.78698  eV     1   --> G_3            
     e( 68 - 68) =     55.61418  eV     1   --> G_4            
     e( 69 - 69) =     56.62756  eV     1   --> G_4            
     e( 70 - 70) =     56.68143  eV     1   --> G_4            
     e( 71 - 71) =     56.69634  eV     1   --> G_3            
     e( 72 - 72) =     57.22888  eV     1   --> G_3            
     e( 73 - 73) =     59.93375  eV     1   --> G_4            
     e( 74 - 74) =     59.99118  eV     1   --> G_3            
     e( 75 - 75) =     60.11606  eV     1   --> G_4            
     e( 76 - 76) =     60.22672  eV     1   --> G_3            
     e( 77 - 77) =     60.47482  eV     1   --> G_3            
     e( 78 - 78) =     60.52776  eV     1   --> G_4            
     e( 79 - 79) =     60.72482  eV     1   --> G_3            
     e( 80 - 80) =     60.78333  eV     1   --> G_4            
     e( 81 - 81) =     64.97167  eV     1   --> G_4            
     e( 82 - 82) =     65.04848  eV     1   --> G_3            
     e( 83 - 83) =     66.37793  eV     1   --> G_4            
     e( 84 - 84) =     66.59068  eV     1   --> G_3            
     e( 85 - 85) =     67.71103  eV     1   --> G_4            
     e( 86 - 86) =     67.95724  eV     1   --> G_3            
     e( 87 - 87) =     68.34149  eV     1   --> G_3            
     e( 88 - 88) =     68.44365  eV     1   --> G_4            
     e( 89 - 89) =     68.65962  eV     1   --> G_3            
     e( 90 - 90) =     68.68823  eV     1   --> G_4            
     e( 91 - 91) =     70.32564  eV     1   --> G_4            
     e( 92 - 92) =     70.53669  eV     1   --> G_3            
     e( 93 - 93) =     71.27272  eV     1   --> G_3            
     e( 94 - 94) =     71.66596  eV     1   --> G_4            
     e( 95 - 95) =     76.58580  eV     1   --> G_4            
     e( 96 - 96) =     77.01581  eV     1   --> G_3            
     e( 97 - 97) =     77.23024  eV     1   --> G_3            
     e( 98 - 98) =     77.73229  eV     1   --> G_4            

 **************************************************************************

 **************************************************************************

                    xk=(   0.00000,   0.06000,   0.00000  )

     Band symmetry, C_2v (mm2)  [C_s (m)    ] magnetic double point group,
     using C_s (m)    

     e(  1 -  1) =    -71.96470  eV     1   --> G_4            
     e(  2 -  2) =    -68.38026  eV     1   --> G_3            
     e(  3 -  3) =    -38.68689  eV     1   --> G_4            
     e(  4 -  4) =    -38.05538  eV     1   --> G_3            
     e(  5 -  5) =    -37.49943  eV     1   --> G_4            
     e(  6 -  6) =    -34.82164  eV     1   --> G_3            
     e(  7 -  7) =    -34.28983  eV     1   --> G_4            
     e(  8 -  8) =    -33.96741  eV     1   --> G_3            
     e(  9 -  9) =      7.59361  eV     1   --> G_4            
     e( 10 - 10) =      7.72058  eV     1   --> G_3            
     e( 11 - 11) =     10.75435  eV     1   --> G_4            
     e( 12 - 12) =     10.93781  eV     1   --> G_4            
     e( 13 - 13) =     11.28450  eV     1   --> G_3            
     e( 14 - 14) =     11.33927  eV     1   --> G_3            
     e( 15 - 15) =     13.51188  eV     1   --> G_4            
     e( 16 - 16) =     13.62848  eV     1   --> G_3            
     e( 17 - 17) =     14.01093  eV     1   --> G_4            
     e( 18 - 18) =     14.60120  eV     1   --> G_3            
     e( 19 - 19) =     14.64574  eV     1   --> G_4            
     e( 20 - 20) =     14.91331  eV     1   --> G_3            
     e( 21 - 21) =     15.18656  eV     1   --> G_4            
     e( 22 - 22) =     16.09419  eV     1   --> G_3            
     e( 23 - 23) =     16.12114  eV     1   --> G_4            
     e( 24 - 24) =     16.39987  eV     1   --> G_3            
     e( 25 - 25) =     16.55966  eV     1   --> G_4            
     e( 26 - 26) =     16.77464  eV     1   --> G_3            
     e( 27 - 27) =     17.60614  eV     1   --> G_3            
     e( 28 - 28) =     18.10605  eV     1   --> G_3            
     e( 29 - 29) =     18.60332  eV     1   --> G_4            
     e( 30 - 30) =     18.76483  eV     1   --> G_4            
     e( 31 - 31) =     19.38848  eV     1   --> G_4            
     e( 32 - 32) =     19.89815  eV     1   --> G_3            
     e( 33 - 33) =     26.23264  eV     1   --> G_4            
     e( 34 - 34) =     27.06232  eV     1   --> G_3            
     e( 35 - 35) =     28.18238  eV     1   --> G_4            
     e( 36 - 36) =     28.41482  eV     1   --> G_3            
     e( 37 - 37) =     29.29349  eV     1   --> G_3            
     e( 38 - 38) =     29.47263  eV     1   --> G_4            
     e( 39 - 39) =     35.07244  eV     1   --> G_3            
     e( 40 - 40) =     35.25082  eV     1   --> G_4            
     e( 41 - 41) =     35.66904  eV     1   --> G_4            
     e( 42 - 42) =     36.29821  eV     1   --> G_3            
     e( 43 - 43) =     36.95757  eV     1   --> G_4            
     e( 44 - 44) =     37.50869  eV     1   --> G_3            
     e( 45 - 45) =     38.73832  eV     1   --> G_4            
     e( 46 - 46) =     38.84857  eV     1   --> G_3            
     e( 47 - 47) =     39.51247  eV     1   --> G_4            
     e( 48 - 48) =     39.52252  eV     1   --> G_3            
     e( 49 - 49) =     39.86117  eV     1   --> G_4            
     e( 50 - 50) =     39.99014  eV     1   --> G_3            
     e( 51 - 51) =     44.42870  eV     1   --> G_3            
     e( 52 - 52) =     44.64868  eV     1   --> G_4            
     e( 53 - 53) =     45.64187  eV     1   --> G_3            
     e( 54 - 54) =     45.81488  eV     1   --> G_4            
     e( 55 - 55) =     46.26715  eV     1   --> G_4            
     e( 56 - 56) =     46.36790  eV     1   --> G_3            
     e( 57 - 57) =     47.67844  eV     1   --> G_4            
     e( 58 - 58) =     47.81350  eV     1   --> G_3            
     e( 59 - 59) =     49.90440  eV     1   --> G_3            
     e( 60 - 60) =     50.28782  eV     1   --> G_4            
     e( 61 - 61) =     51.67740  eV     1   --> G_4            
     e( 62 - 62) =     51.93669  eV     1   --> G_3            
     e( 63 - 63) =     52.00991  eV     1   --> G_3            
     e( 64 - 64) =     52.14592  eV     1   --> G_4            
     e( 65 - 65) =     52.83405  eV     1   --> G_4            
     e( 66 - 66) =     53.55077  eV     1   --> G_3            
     e( 67 - 67) =     55.04979  eV     1   --> G_3            
     e( 68 - 68) =     55.82170  eV     1   --> G_4            
     e( 69 - 69) =     56.40300  eV     1   --> G_4            
     e( 70 - 70) =     56.40960  eV     1   --> G_3            
     e( 71 - 71) =     56.71190  eV     1   --> G_4            
     e( 72 - 72) =     57.27237  eV     1   --> G_3            
     e( 73 - 73) =     59.88265  eV     1   --> G_4            
     e( 74 - 74) =     59.96351  eV     1   --> G_3            
     e( 75 - 75) =     60.25845  eV     1   --> G_4            
     e( 76 - 76) =     60.35085  eV     1   --> G_3            
     e( 77 - 77) =     60.44928  eV     1   --> G_3            
     e( 78 - 78) =     60.51543  eV     1   --> G_4            
     e( 79 - 79) =     60.98780  eV     1   --> G_3            
     e( 80 - 80) =     61.03220  eV     1   --> G_4            
     e( 81 - 81) =     65.06703  eV     1   --> G_4            
     e( 82 - 82) =     65.14143  eV     1   --> G_3            
     e( 83 - 83) =     66.05177  eV     1   --> G_4            
     e( 84 - 84) =     66.27006  eV     1   --> G_3            
     e( 85 - 85) =     67.79600  eV     1   --> G_4            
     e( 86 - 86) =     67.80384  eV     1   --> G_3            
     e( 87 - 87) =     68.31621  eV     1   --> G_4            
     e( 88 - 88) =     68.43745  eV     1   --> G_3            
     e( 89 - 89) =     68.80875  eV     1   --> G_3            
     e( 90 - 90) =     68.82655  eV     1   --> G_4            
     e( 91 - 91) =     70.67032  eV     1   --> G_4            
     e( 92 - 92) =     70.83228  eV     1   --> G_3            
     e( 93 - 93) =     71.51005  eV     1   --> G_3            
     e( 94 - 94) =     71.84522  eV     1   --> G_4            
     e( 95 - 95) =     76.33100  eV     1   --> G_4            
     e( 96 - 96) =     76.82753  eV     1   --> G_3            
     e( 97 - 97) =     77.08317  eV     1   --> G_3            
     e( 98 - 98) =     77.67075  eV     1   --> G_4            

 **************************************************************************

 **************************************************************************

                    xk=(   0.00000,   0.07000,   0.00000  )

     Band symmetry, C_2v (mm2)  [C_s (m)    ] magnetic double point group,
     using C_s (m)    

     e(  1 -  1) =    -71.96459  eV     1   --> G_4            
     e(  2 -  2) =    -68.38014  eV     1   --> G_3            
     e(  3 -  3) =    -38.68724  eV     1   --> G_4            
     e(  4 -  4) =    -38.05531  eV     1   --> G_3            
     e(  5 -  5) =    -37.50013  eV     1   --> G_4            
     e(  6 -  6) =    -34.82212  eV     1   --> G_3            
     e(  7 -  7) =    -34.28974  eV     1   --> G_4            
     e(  8 -  8) =    -33.96817  eV     1   --> G_3            
     e(  9 -  9) =      7.62693  eV     1   --> G_4            
     e( 10 - 10) =      7.75410  eV     1   --> G_3            
     e( 11 - 11) =     10.77232  eV     1   --> G_4            
     e( 12 - 12) =     10.95968  eV     1   --> G_4            
     e( 13 - 13) =     11.29606  eV     1   --> G_3            
     e( 14 - 14) =     11.36813  eV     1   --> G_3            
     e( 15 - 15) =     13.50018  eV     1   --> G_4            
     e( 16 - 16) =     13.63709  eV     1   --> G_3            
     e( 17 - 17) =     14.01735  eV     1   --> G_4            
     e( 18 - 18) =     14.57295  eV     1   --> G_3            
     e( 19 - 19) =     14.65332  eV     1   --> G_4            
     e( 20 - 20) =     14.90256  eV     1   --> G_3            
     e( 21 - 21) =     15.18737  eV     1   --> G_4            
     e( 22 - 22) =     16.05367  eV     1   --> G_4            
     e( 23 - 23) =     16.09019  eV     1   --> G_3            
     e( 24 - 24) =     16.39342  eV     1   --> G_3            
     e( 25 - 25) =     16.50869  eV     1   --> G_4            
     e( 26 - 26) =     16.75625  eV     1   --> G_3            
     e( 27 - 27) =     17.60557  eV     1   --> G_3            
     e( 28 - 28) =     17.99030  eV     1   --> G_3            
     e( 29 - 29) =     18.58993  eV     1   --> G_4            
     e( 30 - 30) =     18.74999  eV     1   --> G_4            
     e( 31 - 31) =     19.51792  eV     1   --> G_4            
     e( 32 - 32) =     20.06318  eV     1   --> G_3            
     e( 33 - 33) =     26.21237  eV     1   --> G_4            
     e( 34 - 34) =     27.03019  eV     1   --> G_3            
     e( 35 - 35) =     28.03585  eV     1   --> G_4            
     e( 36 - 36) =     28.32128  eV     1   --> G_3            
     e( 37 - 37) =     29.29552  eV     1   --> G_3            
     e( 38 - 38) =     29.51062  eV     1   --> G_4            
     e( 39 - 39) =     35.09927  eV     1   --> G_3            
     e( 40 - 40) =     35.27077  eV     1   --> G_4            
     e( 41 - 41) =     35.63022  eV     1   --> G_4            
     e( 42 - 42) =     36.24533  eV     1   --> G_3            
     e( 43 - 43) =     37.17159  eV     1   --> G_4            
     e( 44 - 44) =     37.71790  eV     1   --> G_3            
     e( 45 - 45) =     38.63533  eV     1   --> G_4            
     e( 46 - 46) =     38.74877  eV     1   --> G_3            
     e( 47 - 47) =     39.46186  eV     1   --> G_4            
     e( 48 - 48) =     39.52367  eV     1   --> G_3            
     e( 49 - 49) =     39.87514  eV     1   --> G_4            
     e( 50 - 50) =     39.95877  eV     1   --> G_3            
     e( 51 - 51) =     44.57682  eV     1   --> G_3            
     e( 52 - 52) =     44.76839  eV     1   --> G_4            
     e( 53 - 53) =     45.61271  eV     1   --> G_3            
     e( 54 - 54) =     45.84941  eV     1   --> G_4            
     e( 55 - 55) =     46.23798  eV     1   --> G_4            
     e( 56 - 56) =     46.37944  eV     1   --> G_3            
     e( 57 - 57) =     47.56517  eV     1   --> G_4            
     e( 58 - 58) =     47.68878  eV     1   --> G_3            
     e( 59 - 59) =     49.70281  eV     1   --> G_3            
     e( 60 - 60) =     50.20034  eV     1   --> G_4            
     e( 61 - 61) =     51.56519  eV     1   --> G_4            
     e( 62 - 62) =     51.89811  eV     1   --> G_3            
     e( 63 - 63) =     51.97437  eV     1   --> G_3            
     e( 64 - 64) =     52.08392  eV     1   --> G_4            
     e( 65 - 65) =     52.92736  eV     1   --> G_4            
     e( 66 - 66) =     53.64806  eV     1   --> G_3            
     e( 67 - 67) =     55.30300  eV     1   --> G_3            
     e( 68 - 68) =     55.87099  eV     1   --> G_4            
     e( 69 - 69) =     56.13062  eV     1   --> G_3            
     e( 70 - 70) =     56.30958  eV     1   --> G_4            
     e( 71 - 71) =     56.77116  eV     1   --> G_4            
     e( 72 - 72) =     57.31926  eV     1   --> G_3            
     e( 73 - 73) =     59.82057  eV     1   --> G_4            
     e( 74 - 74) =     59.92400  eV     1   --> G_3            
     e( 75 - 75) =     60.37440  eV     1   --> G_3            
     e( 76 - 76) =     60.41625  eV     1   --> G_4            
     e( 77 - 77) =     60.51188  eV     1   --> G_4            
     e( 78 - 78) =     60.54919  eV     1   --> G_3            
     e( 79 - 79) =     61.25360  eV     1   --> G_3            
     e( 80 - 80) =     61.28604  eV     1   --> G_4            
     e( 81 - 81) =     65.18225  eV     1   --> G_4            
     e( 82 - 82) =     65.25382  eV     1   --> G_3            
     e( 83 - 83) =     65.73298  eV     1   --> G_4            
     e( 84 - 84) =     65.95489  eV     1   --> G_3            
     e( 85 - 85) =     67.64066  eV     1   --> G_3            
     e( 86 - 86) =     67.89617  eV     1   --> G_4            
     e( 87 - 87) =     68.16546  eV     1   --> G_4            
     e( 88 - 88) =     68.54685  eV     1   --> G_3            
     e( 89 - 89) =     68.98333  eV     1   --> G_3            
     e( 90 - 90) =     68.99708  eV     1   --> G_4            
     e( 91 - 91) =     71.01385  eV     1   --> G_4            
     e( 92 - 92) =     71.10098  eV     1   --> G_3            
     e( 93 - 93) =     71.78844  eV     1   --> G_3            
     e( 94 - 94) =     72.04046  eV     1   --> G_4            
     e( 95 - 95) =     76.05074  eV     1   --> G_4            
     e( 96 - 96) =     76.55771  eV     1   --> G_3            
     e( 97 - 97) =     76.98380  eV     1   --> G_3            
     e( 98 - 98) =     77.60153  eV     1   --> G_4            

 **************************************************************************

 **************************************************************************

                    xk=(   0.00000,   0.08000,   0.00000  )

     Band symmetry, C_2v (mm2)  [C_s (m)    ] magnetic double point group,
     using C_s (m)    

     e(  1 -  1) =    -71.96447  eV     1   --> G_4            
     e(  2 -  2) =    -68.38000  eV     1   --> G_3            
     e(  3 -  3) =    -38.68766  eV     1   --> G_4            
     e(  4 -  4) =    -38.05524  eV     1   --> G_3            
     e(  5 -  5) =    -37.50091  eV     1   --> G_4            
     e(  6 -  6) =    -34.82267  eV     1   --> G_3            
     e(  7 -  7) =    -34.28965  eV     1   --> G_4            
     e(  8 -  8) =    -33.96903  eV     1   --> G_3            
     e(  9 -  9) =      7.66519  eV     1   --> G_4            
     e( 10 - 10) =      7.79258  eV     1   --> G_3            
     e( 11 - 11) =     10.79225  eV     1   --> G_4            
     e( 12 - 12) =     10.98545  eV     1   --> G_4            
     e( 13 - 13) =     11.30933  eV     1   --> G_3            
     e( 14 - 14) =     11.40124  eV     1   --> G_3            
     e( 15 - 15) =     13.48665  eV     1   --> G_4            
     e( 16 - 16) =     13.64694  eV     1   --> G_3            
     e( 17 - 17) =     14.02450  eV     1   --> G_4            
     e( 18 - 18) =     14.54036  eV     1   --> G_3            
     e( 19 - 19) =     14.66208  eV     1   --> G_4            
     e( 20 - 20) =     14.89082  eV     1   --> G_3            
     e( 21 - 21) =     15.18836  eV     1   --> G_4            
     e( 22 - 22) =     15.97606  eV     1   --> G_4            
     e( 23 - 23) =     16.08382  eV     1   --> G_3            
     e( 24 - 24) =     16.38719  eV     1   --> G_3            
     e( 25 - 25) =     16.45975  eV     1   --> G_4            
     e( 26 - 26) =     16.73591  eV     1   --> G_3            
     e( 27 - 27) =     17.60492  eV     1   --> G_3            
     e( 28 - 28) =     17.87829  eV     1   --> G_3            
     e( 29 - 29) =     18.57443  eV     1   --> G_4            
     e( 30 - 30) =     18.73369  eV     1   --> G_4            
     e( 31 - 31) =     19.65756  eV     1   --> G_4            
     e( 32 - 32) =     20.23192  eV     1   --> G_3            
     e( 33 - 33) =     26.18606  eV     1   --> G_4            
     e( 34 - 34) =     26.98781  eV     1   --> G_3            
     e( 35 - 35) =     27.87254  eV     1   --> G_4            
     e( 36 - 36) =     28.20687  eV     1   --> G_3            
     e( 37 - 37) =     29.32009  eV     1   --> G_3            
     e( 38 - 38) =     29.56335  eV     1   --> G_4            
     e( 39 - 39) =     35.12868  eV     1   --> G_3            
     e( 40 - 40) =     35.29175  eV     1   --> G_4            
     e( 41 - 41) =     35.57525  eV     1   --> G_4            
     e( 42 - 42) =     36.17554  eV     1   --> G_3            
     e( 43 - 43) =     37.41412  eV     1   --> G_4            
     e( 44 - 44) =     37.95404  eV     1   --> G_3            
     e( 45 - 45) =     38.52304  eV     1   --> G_4            
     e( 46 - 46) =     38.63859  eV     1   --> G_3            
     e( 47 - 47) =     39.39799  eV     1   --> G_4            
     e( 48 - 48) =     39.52232  eV     1   --> G_3            
     e( 49 - 49) =     39.91027  eV     1   --> G_4            
     e( 50 - 50) =     39.94165  eV     1   --> G_3            
     e( 51 - 51) =     44.70531  eV     1   --> G_3            
     e( 52 - 52) =     44.86039  eV     1   --> G_4            
     e( 53 - 53) =     45.57945  eV     1   --> G_3            
     e( 54 - 54) =     45.88997  eV     1   --> G_4            
     e( 55 - 55) =     46.20709  eV     1   --> G_4            
     e( 56 - 56) =     46.39752  eV     1   --> G_3            
     e( 57 - 57) =     47.48052  eV     1   --> G_4            
     e( 58 - 58) =     47.58332  eV     1   --> G_3            
     e( 59 - 59) =     49.47352  eV     1   --> G_3            
     e( 60 - 60) =     50.06033  eV     1   --> G_4            
     e( 61 - 61) =     51.48935  eV     1   --> G_4            
     e( 62 - 62) =     51.84648  eV     1   --> G_3            
     e( 63 - 63) =     51.96330  eV     1   --> G_3            
     e( 64 - 64) =     52.01679  eV     1   --> G_4            
     e( 65 - 65) =     53.03866  eV     1   --> G_4            
     e( 66 - 66) =     53.76095  eV     1   --> G_3            
     e( 67 - 67) =     55.47316  eV     1   --> G_3            
     e( 68 - 68) =     55.65497  eV     1   --> G_4            
     e( 69 - 69) =     55.93330  eV     1   --> G_3            
     e( 70 - 70) =     56.46582  eV     1   --> G_4            
     e( 71 - 71) =     56.84497  eV     1   --> G_4            
     e( 72 - 72) =     57.36755  eV     1   --> G_3            
     e( 73 - 73) =     59.74937  eV     1   --> G_4            
     e( 74 - 74) =     59.87291  eV     1   --> G_3            
     e( 75 - 75) =     60.34697  eV     1   --> G_3            
     e( 76 - 76) =     60.48120  eV     1   --> G_4            
     e( 77 - 77) =     60.62705  eV     1   --> G_4            
     e( 78 - 78) =     60.72712  eV     1   --> G_3            
     e( 79 - 79) =     61.51598  eV     1   --> G_3            
     e( 80 - 80) =     61.53726  eV     1   --> G_4            
     e( 81 - 81) =     65.31806  eV     1   --> G_4            
     e( 82 - 82) =     65.38659  eV     1   --> G_3            
     e( 83 - 83) =     65.42338  eV     1   --> G_4            
     e( 84 - 84) =     65.64727  eV     1   --> G_3            
     e( 85 - 85) =     67.47290  eV     1   --> G_3            
     e( 86 - 86) =     67.97993  eV     1   --> G_4            
     e( 87 - 87) =     68.03693  eV     1   --> G_4            
     e( 88 - 88) =     68.66983  eV     1   --> G_3            
     e( 89 - 89) =     69.18136  eV     1   --> G_3            
     e( 90 - 90) =     69.19150  eV     1   --> G_4            
     e( 91 - 91) =     71.34178  eV     1   --> G_3            
     e( 92 - 92) =     71.34596  eV     1   --> G_4            
     e( 93 - 93) =     72.10046  eV     1   --> G_3            
     e( 94 - 94) =     72.25114  eV     1   --> G_4            
     e( 95 - 95) =     75.75047  eV     1   --> G_4            
     e( 96 - 96) =     76.25176  eV     1   --> G_3            
     e( 97 - 97) =     76.89342  eV     1   --> G_3            
     e( 98 - 98) =     77.52557  eV     1   --> G_4            

 **************************************************************************

 **************************************************************************

                    xk=(   0.00000,   0.09000,   0.00000  )

     Band symmetry, C_2v (mm2)  [C_s (m)    ] magnetic double point group,
     using C_s (m)    

     e(  1 -  1) =    -71.96434  eV     1   --> G_4            
     e(  2 -  2) =    -68.37984  eV     1   --> G_3            
     e(  3 -  3) =    -38.68812  eV     1   --> G_4            
     e(  4 -  4) =    -38.05518  eV     1   --> G_3            
     e(  5 -  5) =    -37.50178  eV     1   --> G_4            
     e(  6 -  6) =    -34.82328  eV     1   --> G_3            
     e(  7 -  7) =    -34.28957  eV     1   --> G_4            
     e(  8 -  8) =    -33.96999  eV     1   --> G_3            
     e(  9 -  9) =      7.70830  eV     1   --> G_4            
     e( 10 - 10) =      7.83595  eV     1   --> G_3            
     e( 11 - 11) =     10.81391  eV     1   --> G_4            
     e( 12 - 12) =     11.01522  eV     1   --> G_4            
     e( 13 - 13) =     11.32428  eV     1   --> G_3            
     e( 14 - 14) =     11.43850  eV     1   --> G_3            
     e( 15 - 15) =     13.47131  eV     1   --> G_4            
     e( 16 - 16) =     13.65797  eV     1   --> G_3            
     e( 17 - 17) =     14.03226  eV     1   --> G_4            
     e( 18 - 18) =     14.50357  eV     1   --> G_3            
     e( 19 - 19) =     14.67199  eV     1   --> G_4            
     e( 20 - 20) =     14.87824  eV     1   --> G_3            
     e( 21 - 21) =     15.18952  eV     1   --> G_4            
     e( 22 - 22) =     15.89038  eV     1   --> G_4            
     e( 23 - 23) =     16.07434  eV     1   --> G_3            
     e( 24 - 24) =     16.38172  eV     1   --> G_3            
     e( 25 - 25) =     16.41280  eV     1   --> G_4            
     e( 26 - 26) =     16.71394  eV     1   --> G_3            
     e( 27 - 27) =     17.60384  eV     1   --> G_3            
     e( 28 - 28) =     17.77071  eV     1   --> G_3            
     e( 29 - 29) =     18.55676  eV     1   --> G_4            
     e( 30 - 30) =     18.71614  eV     1   --> G_4            
     e( 31 - 31) =     19.80577  eV     1   --> G_4            
     e( 32 - 32) =     20.40399  eV     1   --> G_3            
     e( 33 - 33) =     26.15172  eV     1   --> G_4            
     e( 34 - 34) =     26.93181  eV     1   --> G_3            
     e( 35 - 35) =     27.69836  eV     1   --> G_4            
     e( 36 - 36) =     28.08004  eV     1   --> G_3            
     e( 37 - 37) =     29.36476  eV     1   --> G_3            
     e( 38 - 38) =     29.62968  eV     1   --> G_4            
     e( 39 - 39) =     35.15992  eV     1   --> G_3            
     e( 40 - 40) =     35.31270  eV     1   --> G_4            
     e( 41 - 41) =     35.50502  eV     1   --> G_4            
     e( 42 - 42) =     36.08943  eV     1   --> G_3            
     e( 43 - 43) =     37.68029  eV     1   --> G_4            
     e( 44 - 44) =     38.21216  eV     1   --> G_3            
     e( 45 - 45) =     38.40594  eV     1   --> G_4            
     e( 46 - 46) =     38.52432  eV     1   --> G_3            
     e( 47 - 47) =     39.32412  eV     1   --> G_4            
     e( 48 - 48) =     39.50769  eV     1   --> G_3            
     e( 49 - 49) =     39.94874  eV     1   --> G_3            
     e( 50 - 50) =     39.96430  eV     1   --> G_4            
     e( 51 - 51) =     44.79593  eV     1   --> G_3            
     e( 52 - 52) =     44.90594  eV     1   --> G_4            
     e( 53 - 53) =     45.54236  eV     1   --> G_3            
     e( 54 - 54) =     45.93446  eV     1   --> G_4            
     e( 55 - 55) =     46.17714  eV     1   --> G_4            
     e( 56 - 56) =     46.42395  eV     1   --> G_3            
     e( 57 - 57) =     47.44317  eV     1   --> G_4            
     e( 58 - 58) =     47.51400  eV     1   --> G_3            
     e( 59 - 59) =     49.22371  eV     1   --> G_3            
     e( 60 - 60) =     49.87338  eV     1   --> G_4            
     e( 61 - 61) =     51.44511  eV     1   --> G_4            
     e( 62 - 62) =     51.78215  eV     1   --> G_3            
     e( 63 - 63) =     51.94600  eV     1   --> G_4            
     e( 64 - 64) =     51.97018  eV     1   --> G_3            
     e( 65 - 65) =     53.16657  eV     1   --> G_4            
     e( 66 - 66) =     53.88733  eV     1   --> G_3            
     e( 67 - 67) =     55.35584  eV     1   --> G_3            
     e( 68 - 68) =     55.36909  eV     1   --> G_4            
     e( 69 - 69) =     56.02270  eV     1   --> G_3            
     e( 70 - 70) =     56.65498  eV     1   --> G_4            
     e( 71 - 71) =     56.95157  eV     1   --> G_4            
     e( 72 - 72) =     57.41556  eV     1   --> G_3            
     e( 73 - 73) =     59.67099  eV     1   --> G_4            
     e( 74 - 74) =     59.81135  eV     1   --> G_3            
     e( 75 - 75) =     60.32330  eV     1   --> G_3            
     e( 76 - 76) =     60.48393  eV     1   --> G_4            
     e( 77 - 77) =     60.83087  eV     1   --> G_4            
     e( 78 - 78) =     60.92930  eV     1   --> G_3            
     e( 79 - 79) =     61.77069  eV     1   --> G_3            
     e( 80 - 80) =     61.78133  eV     1   --> G_4            
     e( 81 - 81) =     65.12340  eV     1   --> G_4            
     e( 82 - 82) =     65.34836  eV     1   --> G_3            
     e( 83 - 83) =     65.47580  eV     1   --> G_4            
     e( 84 - 84) =     65.54076  eV     1   --> G_3            
     e( 85 - 85) =     67.30438  eV     1   --> G_3            
     e( 86 - 86) =     67.83291  eV     1   --> G_4            
     e( 87 - 87) =     68.15109  eV     1   --> G_4            
     e( 88 - 88) =     68.80670  eV     1   --> G_3            
     e( 89 - 89) =     69.40062  eV     1   --> G_3            
     e( 90 - 90) =     69.40665  eV     1   --> G_4            
     e( 91 - 91) =     71.56113  eV     1   --> G_3            
     e( 92 - 92) =     71.65786  eV     1   --> G_4            
     e( 93 - 93) =     72.43229  eV     1   --> G_3            
     e( 94 - 94) =     72.47716  eV     1   --> G_4            
     e( 95 - 95) =     75.43478  eV     1   --> G_4            
     e( 96 - 96) =     75.92563  eV     1   --> G_3            
     e( 97 - 97) =     76.80172  eV     1   --> G_3            
     e( 98 - 98) =     77.44374  eV     1   --> G_4            

 **************************************************************************

 **************************************************************************

                    xk=(   0.00000,   0.10000,   0.00000  )

     Band symmetry, C_2v (mm2)  [C_s (m)    ] magnetic double point group,
     using C_s (m)    

     e(  1 -  1) =    -71.96419  eV     1   --> G_4            
     e(  2 -  2) =    -68.37967  eV     1   --> G_3            
     e(  3 -  3) =    -38.68862  eV     1   --> G_4            
     e(  4 -  4) =    -38.05509  eV     1   --> G_3            
     e(  5 -  5) =    -37.50277  eV     1   --> G_4            
     e(  6 -  6) =    -34.82395  eV     1   --> G_3            
     e(  7 -  7) =    -34.28945  eV     1   --> G_4            
     e(  8 -  8) =    -33.97106  eV     1   --> G_3            
     e(  9 -  9) =      7.75617  eV     1   --> G_4            
     e( 10 - 10) =      7.88410  eV     1   --> G_3            
     e( 11 - 11) =     10.83710  eV     1   --> G_4            
     e( 12 - 12) =     11.04907  eV     1   --> G_4            
     e( 13 - 13) =     11.34088  eV     1   --> G_3            
     e( 14 - 14) =     11.47980  eV     1   --> G_3            
     e( 15 - 15) =     13.45416  eV     1   --> G_4            
     e( 16 - 16) =     13.67011  eV     1   --> G_3            
     e( 17 - 17) =     14.04047  eV     1   --> G_4            
     e( 18 - 18) =     14.46284  eV     1   --> G_3            
     e( 19 - 19) =     14.68300  eV     1   --> G_4            
     e( 20 - 20) =     14.86494  eV     1   --> G_3            
     e( 21 - 21) =     15.19080  eV     1   --> G_4            
     e( 22 - 22) =     15.79898  eV     1   --> G_4            
     e( 23 - 23) =     16.06107  eV     1   --> G_3            
     e( 24 - 24) =     16.36728  eV     1   --> G_4            
     e( 25 - 25) =     16.37747  eV     1   --> G_3            
     e( 26 - 26) =     16.69067  eV     1   --> G_3            
     e( 27 - 27) =     17.59939  eV     1   --> G_3            
     e( 28 - 28) =     17.67077  eV     1   --> G_3            
     e( 29 - 29) =     18.53692  eV     1   --> G_4            
     e( 30 - 30) =     18.69752  eV     1   --> G_4            
     e( 31 - 31) =     19.96124  eV     1   --> G_4            
     e( 32 - 32) =     20.57913  eV     1   --> G_3            
     e( 33 - 33) =     26.10649  eV     1   --> G_4            
     e( 34 - 34) =     26.85790  eV     1   --> G_3            
     e( 35 - 35) =     27.51977  eV     1   --> G_4            
     e( 36 - 36) =     27.95049  eV     1   --> G_3            
     e( 37 - 37) =     29.42642  eV     1   --> G_3            
     e( 38 - 38) =     29.70839  eV     1   --> G_4            
     e( 39 - 39) =     35.19207  eV     1   --> G_3            
     e( 40 - 40) =     35.33192  eV     1   --> G_4            
     e( 41 - 41) =     35.42075  eV     1   --> G_4            
     e( 42 - 42) =     35.98762  eV     1   --> G_3            
     e( 43 - 43) =     37.96497  eV     1   --> G_4            
     e( 44 - 44) =     38.28799  eV     1   --> G_4            
     e( 45 - 45) =     38.40902  eV     1   --> G_3            
     e( 46 - 46) =     38.48842  eV     1   --> G_3            
     e( 47 - 47) =     39.24484  eV     1   --> G_4            
     e( 48 - 48) =     39.47601  eV     1   --> G_3            
     e( 49 - 49) =     39.98492  eV     1   --> G_3            
     e( 50 - 50) =     40.03446  eV     1   --> G_4            
     e( 51 - 51) =     44.83106  eV     1   --> G_3            
     e( 52 - 52) =     44.89051  eV     1   --> G_4            
     e( 53 - 53) =     45.50142  eV     1   --> G_3            
     e( 54 - 54) =     45.97519  eV     1   --> G_4            
     e( 55 - 55) =     46.15486  eV     1   --> G_4            
     e( 56 - 56) =     46.45976  eV     1   --> G_3            
     e( 57 - 57) =     47.46894  eV     1   --> G_4            
     e( 58 - 58) =     47.49796  eV     1   --> G_3            
     e( 59 - 59) =     48.95962  eV     1   --> G_3            
     e( 60 - 60) =     49.65103  eV     1   --> G_4            
     e( 61 - 61) =     51.42142  eV     1   --> G_4            
     e( 62 - 62) =     51.71129  eV     1   --> G_3            
     e( 63 - 63) =     51.87308  eV     1   --> G_4            
     e( 64 - 64) =     51.98401  eV     1   --> G_3            
     e( 65 - 65) =     53.30877  eV     1   --> G_4            
     e( 66 - 66) =     54.02125  eV     1   --> G_3            
     e( 67 - 67) =     55.07074  eV     1   --> G_4            
     e( 68 - 68) =     55.09513  eV     1   --> G_3            
     e( 69 - 69) =     56.25797  eV     1   --> G_3            
     e( 70 - 70) =     56.78891  eV     1   --> G_4            
     e( 71 - 71) =     57.11885  eV     1   --> G_4            
     e( 72 - 72) =     57.46198  eV     1   --> G_3            
     e( 73 - 73) =     59.58746  eV     1   --> G_4            
     e( 74 - 74) =     59.74148  eV     1   --> G_3            
     e( 75 - 75) =     60.30807  eV     1   --> G_3            
     e( 76 - 76) =     60.49146  eV     1   --> G_4            
     e( 77 - 77) =     61.05712  eV     1   --> G_4            
     e( 78 - 78) =     61.15111  eV     1   --> G_3            
     e( 79 - 79) =     62.01474  eV     1   --> G_3            
     e( 80 - 80) =     62.01512  eV     1   --> G_4            
     e( 81 - 81) =     64.83482  eV     1   --> G_4            
     e( 82 - 82) =     65.05981  eV     1   --> G_3            
     e( 83 - 83) =     65.65486  eV     1   --> G_4            
     e( 84 - 84) =     65.71629  eV     1   --> G_3            
     e( 85 - 85) =     67.13812  eV     1   --> G_3            
     e( 86 - 86) =     67.66927  eV     1   --> G_4            
     e( 87 - 87) =     68.29743  eV     1   --> G_4            
     e( 88 - 88) =     68.95755  eV     1   --> G_3            
     e( 89 - 89) =     69.63891  eV     1   --> G_3            
     e( 90 - 90) =     69.64028  eV     1   --> G_4            
     e( 91 - 91) =     71.76594  eV     1   --> G_3            
     e( 92 - 92) =     71.94281  eV     1   --> G_4            
     e( 93 - 93) =     72.71660  eV     1   --> G_4            
     e( 94 - 94) =     72.76976  eV     1   --> G_3            
     e( 95 - 95) =     75.10781  eV     1   --> G_4            
     e( 96 - 96) =     75.58626  eV     1   --> G_3            
     e( 97 - 97) =     76.70683  eV     1   --> G_3            
     e( 98 - 98) =     77.35691  eV     1   --> G_4            

 **************************************************************************

 **************************************************************************

                    xk=(   0.00000,   0.11000,   0.00000  )

     Band symmetry, C_2v (mm2)  [C_s (m)    ] magnetic double point group,
     using C_s (m)    

     e(  1 -  1) =    -71.96401  eV     1   --> G_4            
     e(  2 -  2) =    -68.37947  eV     1   --> G_3            
     e(  3 -  3) =    -38.68912  eV     1   --> G_4            
     e(  4 -  4) =    -38.05498  eV     1   --> G_3            
     e(  5 -  5) =    -37.50381  eV     1   --> G_4            
     e(  6 -  6) =    -34.82466  eV     1   --> G_3            
     e(  7 -  7) =    -34.28931  eV     1   --> G_4            
     e(  8 -  8) =    -33.97219  eV     1   --> G_3            
     e(  9 -  9) =      7.80870  eV     1   --> G_4            
     e( 10 - 10) =      7.93694  eV     1   --> G_3            
     e( 11 - 11) =     10.86166  eV     1   --> G_4            
     e( 12 - 12) =     11.08696  eV     1   --> G_4            
     e( 13 - 13) =     11.35912  eV     1   --> G_3            
     e( 14 - 14) =     11.52500  eV     1   --> G_3            
     e( 15 - 15) =     13.43523  eV     1   --> G_4            
     e( 16 - 16) =     13.68327  eV     1   --> G_3            
     e( 17 - 17) =     14.04896  eV     1   --> G_4            
     e( 18 - 18) =     14.41848  eV     1   --> G_3            
     e( 19 - 19) =     14.69502  eV     1   --> G_4            
     e( 20 - 20) =     14.85100  eV     1   --> G_3            
     e( 21 - 21) =     15.19209  eV     1   --> G_4            
     e( 22 - 22) =     15.70421  eV     1   --> G_4            
     e( 23 - 23) =     16.04345  eV     1   --> G_3            
     e( 24 - 24) =     16.32255  eV     1   --> G_4            
     e( 25 - 25) =     16.37482  eV     1   --> G_3            
     e( 26 - 26) =     16.66640  eV     1   --> G_3            
     e( 27 - 27) =     17.55246  eV     1   --> G_3            
     e( 28 - 28) =     17.61775  eV     1   --> G_3            
     e( 29 - 29) =     18.51495  eV     1   --> G_4            
     e( 30 - 30) =     18.67801  eV     1   --> G_4            
     e( 31 - 31) =     20.12288  eV     1   --> G_4            
     e( 32 - 32) =     20.75708  eV     1   --> G_3            
     e( 33 - 33) =     26.04639  eV     1   --> G_4            
     e( 34 - 34) =     26.76148  eV     1   --> G_3            
     e( 35 - 35) =     27.34400  eV     1   --> G_4            
     e( 36 - 36) =     27.82765  eV     1   --> G_3            
     e( 37 - 37) =     29.50233  eV     1   --> G_3            
[...]
     e( 24 - 24) =     15.31290  eV     1   --> G_2            
     e( 25 - 25) =     15.35700  eV     1   --> G_2            
     e( 26 - 26) =     15.68047  eV     1   --> G_2            
     e( 27 - 27) =     16.46676  eV     1   --> G_2            
     e( 28 - 28) =     16.65885  eV     1   --> G_2            
     e( 29 - 29) =     17.17831  eV     1   --> G_2            
     e( 30 - 30) =     17.52968  eV     1   --> G_2            
     e( 31 - 31) =     17.57249  eV     1   --> G_2            
     e( 32 - 32) =     18.51327  eV     1   --> G_2            
     e( 33 - 33) =     32.49372  eV     1   --> G_2            
     e( 34 - 34) =     32.55536  eV     1   --> G_2            
     e( 35 - 35) =     32.98203  eV     1   --> G_2            
     e( 36 - 36) =     33.00425  eV     1   --> G_2            
     e( 37 - 37) =     33.42270  eV     1   --> G_2            
     e( 38 - 38) =     33.58538  eV     1   --> G_2            
     e( 39 - 39) =     34.06631  eV     1   --> G_2            
     e( 40 - 40) =     34.08114  eV     1   --> G_2            
     e( 41 - 41) =     34.30845  eV     1   --> G_2            
     e( 42 - 42) =     34.51147  eV     1   --> G_2            
     e( 43 - 43) =     34.99800  eV     1   --> G_2            
     e( 44 - 44) =     35.18706  eV     1   --> G_2            
     e( 45 - 45) =     37.12931  eV     1   --> G_2            
     e( 46 - 46) =     37.17015  eV     1   --> G_2            
     e( 47 - 47) =     37.93256  eV     1   --> G_2            
     e( 48 - 48) =     38.69643  eV     1   --> G_2            
     e( 49 - 49) =     39.48524  eV     1   --> G_2            
     e( 50 - 50) =     39.54676  eV     1   --> G_2            
     e( 51 - 51) =     39.93917  eV     1   --> G_2            
     e( 52 - 52) =     40.50104  eV     1   --> G_2            
     e( 53 - 53) =     47.61780  eV     1   --> G_2            
     e( 54 - 54) =     47.66043  eV     1   --> G_2            
     e( 55 - 55) =     47.75191  eV     1   --> G_2            
     e( 56 - 56) =     47.79016  eV     1   --> G_2            
     e( 57 - 57) =     48.41199  eV     1   --> G_2            
     e( 58 - 58) =     48.65199  eV     1   --> G_2            
     e( 59 - 59) =     48.70652  eV     1   --> G_2            
     e( 60 - 60) =     48.89671  eV     1   --> G_2            
     e( 61 - 61) =     49.47082  eV     1   --> G_2            
     e( 62 - 62) =     49.64511  eV     1   --> G_2            
     e( 63 - 63) =     51.14350  eV     1   --> G_2            
     e( 64 - 64) =     51.75956  eV     1   --> G_2            
     e( 65 - 65) =     53.01817  eV     1   --> G_2            
     e( 66 - 66) =     53.41547  eV     1   --> G_2            
     e( 67 - 67) =     53.90446  eV     1   --> G_2            
     e( 68 - 68) =     53.92050  eV     1   --> G_2            
     e( 69 - 69) =     56.18041  eV     1   --> G_2            
     e( 70 - 70) =     56.32101  eV     1   --> G_2            
     e( 71 - 71) =     56.72893  eV     1   --> G_2            
     e( 72 - 72) =     57.05896  eV     1   --> G_2            
     e( 73 - 73) =     58.19653  eV     1   --> G_2            
     e( 74 - 74) =     58.21767  eV     1   --> G_2            
     e( 75 - 75) =     60.37323  eV     1   --> G_2            
     e( 76 - 76) =     60.40403  eV     1   --> G_2            
     e( 77 - 77) =     60.48252  eV     1   --> G_2            
     e( 78 - 78) =     60.63764  eV     1   --> G_2            
     e( 79 - 79) =     61.33400  eV     1   --> G_2            
     e( 80 - 80) =     61.50641  eV     1   --> G_2            
     e( 81 - 81) =     63.73529  eV     1   --> G_2            
     e( 82 - 82) =     63.96230  eV     1   --> G_2            
     e( 83 - 83) =     65.09144  eV     1   --> G_2            
     e( 84 - 84) =     65.52818  eV     1   --> G_2            
     e( 85 - 85) =     68.01615  eV     1   --> G_2            
     e( 86 - 86) =     68.87910  eV     1   --> G_2            
     e( 87 - 87) =     71.72506  eV     1   --> G_2            
     e( 88 - 88) =     71.93677  eV     1   --> G_2            
     e( 89 - 89) =     72.46107  eV     1   --> G_2            
     e( 90 - 90) =     72.69134  eV     1   --> G_2            
     e( 91 - 91) =     75.49763  eV     1   --> G_2            
     e( 92 - 92) =     75.73827  eV     1   --> G_2            
     e( 93 - 93) =     76.25537  eV     1   --> G_2            
     e( 94 - 94) =     76.39010  eV     1   --> G_2            
     e( 95 - 95) =     76.90856  eV     1   --> G_2            
     e( 96 - 96) =     76.99339  eV     1   --> G_2            
     e( 97 - 97) =     77.20335  eV     1   --> G_2            
     e( 98 - 98) =     77.36282  eV     1   --> G_2            

 **************************************************************************

 **************************************************************************

                    xk=(   0.01000,   0.01000,   0.36096  )

     Band symmetry, C_2  (2)    [C_1 (1)    ] magnetic double point group,
     using C_1 (1)    

     e(  1 -  1) =    -71.96495  eV     1   --> G_2            
     e(  2 -  2) =    -68.38044  eV     1   --> G_2            
     e(  3 -  3) =    -38.68817  eV     1   --> G_2            
     e(  4 -  4) =    -38.05585  eV     1   --> G_2            
     e(  5 -  5) =    -37.49934  eV     1   --> G_2            
     e(  6 -  6) =    -34.82304  eV     1   --> G_2            
     e(  7 -  7) =    -34.29055  eV     1   --> G_2            
     e(  8 -  8) =    -33.96784  eV     1   --> G_2            
     e(  9 -  9) =      9.32436  eV     1   --> G_2            
     e( 10 - 10) =      9.38984  eV     1   --> G_2            
     e( 11 - 11) =     11.21243  eV     1   --> G_2            
     e( 12 - 12) =     11.29959  eV     1   --> G_2            
     e( 13 - 13) =     11.54508  eV     1   --> G_2            
     e( 14 - 14) =     11.63857  eV     1   --> G_2            
     e( 15 - 15) =     13.41766  eV     1   --> G_2            
     e( 16 - 16) =     13.79260  eV     1   --> G_2            
     e( 17 - 17) =     13.94764  eV     1   --> G_2            
     e( 18 - 18) =     14.27915  eV     1   --> G_2            
     e( 19 - 19) =     14.65607  eV     1   --> G_2            
     e( 20 - 20) =     14.67868  eV     1   --> G_2            
     e( 21 - 21) =     15.06983  eV     1   --> G_2            
     e( 22 - 22) =     15.15081  eV     1   --> G_2            
     e( 23 - 23) =     15.20457  eV     1   --> G_2            
     e( 24 - 24) =     15.34386  eV     1   --> G_2            
     e( 25 - 25) =     15.36108  eV     1   --> G_2            
     e( 26 - 26) =     15.63548  eV     1   --> G_2            
     e( 27 - 27) =     16.47040  eV     1   --> G_2            
     e( 28 - 28) =     16.68801  eV     1   --> G_2            
     e( 29 - 29) =     17.16225  eV     1   --> G_2            
     e( 30 - 30) =     17.52780  eV     1   --> G_2            
     e( 31 - 31) =     17.54635  eV     1   --> G_2            
     e( 32 - 32) =     18.51261  eV     1   --> G_2            
     e( 33 - 33) =     32.54451  eV     1   --> G_2            
     e( 34 - 34) =     32.61198  eV     1   --> G_2            
     e( 35 - 35) =     33.08634  eV     1   --> G_2            
     e( 36 - 36) =     33.15216  eV     1   --> G_2            
     e( 37 - 37) =     33.48550  eV     1   --> G_2            
     e( 38 - 38) =     33.73517  eV     1   --> G_2            
     e( 39 - 39) =     34.17209  eV     1   --> G_2            
     e( 40 - 40) =     34.17691  eV     1   --> G_2            
     e( 41 - 41) =     34.27290  eV     1   --> G_2            
     e( 42 - 42) =     34.33090  eV     1   --> G_2            
     e( 43 - 43) =     34.98027  eV     1   --> G_2            
     e( 44 - 44) =     35.03317  eV     1   --> G_2            
     e( 45 - 45) =     36.99841  eV     1   --> G_2            
     e( 46 - 46) =     37.07421  eV     1   --> G_2            
     e( 47 - 47) =     37.90838  eV     1   --> G_2            
     e( 48 - 48) =     38.64648  eV     1   --> G_2            
     e( 49 - 49) =     39.46474  eV     1   --> G_2            
     e( 50 - 50) =     39.52565  eV     1   --> G_2            
     e( 51 - 51) =     39.86148  eV     1   --> G_2            
     e( 52 - 52) =     40.42638  eV     1   --> G_2            
     e( 53 - 53) =     47.64263  eV     1   --> G_2            
     e( 54 - 54) =     47.65440  eV     1   --> G_2            
     e( 55 - 55) =     47.76319  eV     1   --> G_2            
     e( 56 - 56) =     47.77382  eV     1   --> G_2            
     e( 57 - 57) =     48.75642  eV     1   --> G_2            
     e( 58 - 58) =     48.83039  eV     1   --> G_2            
     e( 59 - 59) =     48.95994  eV     1   --> G_2            
     e( 60 - 60) =     49.01720  eV     1   --> G_2            
     e( 61 - 61) =     49.32570  eV     1   --> G_2            
     e( 62 - 62) =     49.50529  eV     1   --> G_2            
     e( 63 - 63) =     50.96354  eV     1   --> G_2            
     e( 64 - 64) =     51.60462  eV     1   --> G_2            
     e( 65 - 65) =     52.82157  eV     1   --> G_2            
     e( 66 - 66) =     53.23428  eV     1   --> G_2            
     e( 67 - 67) =     54.00844  eV     1   --> G_2            
     e( 68 - 68) =     54.01722  eV     1   --> G_2            
     e( 69 - 69) =     56.15809  eV     1   --> G_2            
     e( 70 - 70) =     56.31071  eV     1   --> G_2            
     e( 71 - 71) =     56.88225  eV     1   --> G_2            
     e( 72 - 72) =     57.18992  eV     1   --> G_2            
     e( 73 - 73) =     58.04655  eV     1   --> G_2            
     e( 74 - 74) =     58.06997  eV     1   --> G_2            
     e( 75 - 75) =     60.35177  eV     1   --> G_2            
     e( 76 - 76) =     60.36042  eV     1   --> G_2            
     e( 77 - 77) =     60.57878  eV     1   --> G_2            
     e( 78 - 78) =     60.61971  eV     1   --> G_2            
     e( 79 - 79) =     61.44411  eV     1   --> G_2            
     e( 80 - 80) =     61.48863  eV     1   --> G_2            
     e( 81 - 81) =     63.68852  eV     1   --> G_2            
     e( 82 - 82) =     63.90688  eV     1   --> G_2            
     e( 83 - 83) =     64.96062  eV     1   --> G_2            
     e( 84 - 84) =     65.39610  eV     1   --> G_2            
     e( 85 - 85) =     67.99412  eV     1   --> G_2            
     e( 86 - 86) =     68.86186  eV     1   --> G_2            
     e( 87 - 87) =     71.97918  eV     1   --> G_2            
     e( 88 - 88) =     72.04613  eV     1   --> G_2            
     e( 89 - 89) =     72.63931  eV     1   --> G_2            
     e( 90 - 90) =     72.71251  eV     1   --> G_2            
     e( 91 - 91) =     75.25121  eV     1   --> G_2            
     e( 92 - 92) =     75.48053  eV     1   --> G_2            
     e( 93 - 93) =     76.64544  eV     1   --> G_2            
     e( 94 - 94) =     76.75587  eV     1   --> G_2            
     e( 95 - 95) =     76.88879  eV     1   --> G_2            
     e( 96 - 96) =     76.98724  eV     1   --> G_2            
     e( 97 - 97) =     77.21240  eV     1   --> G_2            
     e( 98 - 98) =     77.33314  eV     1   --> G_2            

 **************************************************************************

 **************************************************************************

                    xk=(   0.00000,   0.00000,   0.36096  )

     the magnetic double point group is D_2h (mmm)  [C_2h (2/m) ]
     using the double point group C_2h (2/m) 
     there are  8 classes and  4 irreducible representations
     the character table:

       E     -E    C2    -C2   i     -i    s_h   -s_h 
                                                      
G_3+   1.00 -1.00  0.00  0.00  1.00 -1.00  0.00  0.00
G_4+   1.00 -1.00  0.00  0.00  1.00 -1.00  0.00  0.00
G_3-   1.00 -1.00  0.00  0.00 -1.00  1.00  0.00  0.00
G_4-   1.00 -1.00  0.00  0.00 -1.00  1.00  0.00  0.00

     imaginary part

       E     -E    C2    -C2   i     -i    s_h   -s_h 
                                                      
G_3+   0.00  0.00  1.00 -1.00  0.00  0.00  1.00 -1.00
G_4+   0.00  0.00 -1.00  1.00  0.00  0.00 -1.00  1.00
G_3-   0.00  0.00  1.00 -1.00  0.00  0.00 -1.00  1.00
G_4-   0.00  0.00 -1.00  1.00  0.00  0.00  1.00 -1.00

     the symmetry operations in each class and the name of the first element:

     E             1
                                                                 
     -E           -1
                                                                 
     C2            2
                                                                 
     -C2          -2
                                                                 
     i             3
                                                                 
     -i           -3
                                                                 
     s_h           4
                                                                 
     -s_h         -4
                                                                 

     Band symmetry, D_2h (mmm)  [C_2h (2/m) ] magnetic double point group,
     using C_2h (2/m) 

     e(  1 -  1) =    -71.96497  eV     1   --> G_4+           
     e(  2 -  2) =    -68.38046  eV     1   --> G_3+           
     e(  3 -  3) =    -38.68815  eV     1   --> G_3-           
     e(  4 -  4) =    -38.05577  eV     1   --> G_4-           
     e(  5 -  5) =    -37.49929  eV     1   --> G_3-           
     e(  6 -  6) =    -34.82300  eV     1   --> G_4-           
     e(  7 -  7) =    -34.29046  eV     1   --> G_3-           
     e(  8 -  8) =    -33.96779  eV     1   --> G_4-           
     e(  9 -  9) =      9.31924  eV     1   --> G_3-           
     e( 10 - 10) =      9.38451  eV     1   --> G_4-           
     e( 11 - 11) =     11.21083  eV     1   --> G_4+           
     e( 12 - 12) =     11.29686  eV     1   --> G_3-           
     e( 13 - 13) =     11.54218  eV     1   --> G_4-           
     e( 14 - 14) =     11.63770  eV     1   --> G_3+           
     e( 15 - 15) =     13.41927  eV     1   --> G_4+           
     e( 16 - 16) =     13.79713  eV     1   --> G_3-           
     e( 17 - 17) =     13.95017  eV     1   --> G_4-           
     e( 18 - 18) =     14.28361  eV     1   --> G_4+           
     e( 19 - 19) =     14.65593  eV     1   --> G_3+           
     e( 20 - 20) =     14.67723  eV     1   --> G_4+           
     e( 21 - 21) =     15.10375  eV     1   --> G_3+           
     e( 22 - 22) =     15.13443  eV     1   --> G_3-           
     e( 23 - 23) =     15.17794  eV     1   --> G_4-           
     e( 24 - 24) =     15.35690  eV     1   --> G_3-           
     e( 25 - 25) =     15.36602  eV     1   --> G_4-           
     e( 26 - 26) =     15.61700  eV     1   --> G_3+           
     e( 27 - 27) =     16.47168  eV     1   --> G_4-           
     e( 28 - 28) =     16.69819  eV     1   --> G_3-           
     e( 29 - 29) =     17.15678  eV     1   --> G_3+           
     e( 30 - 30) =     17.52449  eV     1   --> G_4+           
     e( 31 - 31) =     17.53988  eV     1   --> G_3+           
     e( 32 - 32) =     18.51241  eV     1   --> G_4+           
     e( 33 - 33) =     32.56058  eV     1   --> G_4+           
     e( 34 - 34) =     32.63121  eV     1   --> G_3+           
     e( 35 - 35) =     33.11532  eV     1   --> G_4+           
     e( 36 - 36) =     33.22194  eV     1   --> G_4+           
     e( 37 - 37) =     33.50758  eV     1   --> G_3+           
     e( 38 - 38) =     33.79594  eV     1   --> G_3+           
     e( 39 - 39) =     34.21162  eV     1   --> G_4+           
     e( 40 - 40) =     34.21229  eV     1   --> G_3+           
     e( 41 - 41) =     34.25531  eV     1   --> G_4-           
     e( 42 - 42) =     34.25609  eV     1   --> G_3-           
     e( 43 - 43) =     34.97430  eV     1   --> G_4-           
     e( 44 - 44) =     34.97458  eV     1   --> G_3-           
     e( 45 - 45) =     36.94981  eV     1   --> G_3-           
     e( 46 - 46) =     37.03841  eV     1   --> G_4-           
     e( 47 - 47) =     37.90218  eV     1   --> G_3-           
     e( 48 - 48) =     38.63095  eV     1   --> G_4-           
     e( 49 - 49) =     39.45810  eV     1   --> G_4-           
     e( 50 - 50) =     39.51889  eV     1   --> G_3-           
     e( 51 - 51) =     39.83483  eV     1   --> G_4+           
     e( 52 - 52) =     40.40103  eV     1   --> G_3+           
     e( 53 - 53) =     47.64908  eV     1   --> G_4+           
     e( 54 - 54) =     47.65002  eV     1   --> G_3+           
     e( 55 - 56) =     47.76959  eV     2   --> G_3+           
     e( 55 - 56) =     47.76959  eV     2   --> G_4+           
     e( 57 - 58) =     48.89370  eV     2   --> G_3-           
     e( 57 - 58) =     48.89370  eV     2   --> G_4-           
     e( 59 - 60) =     49.07741  eV     2   --> G_3-           
     e( 59 - 60) =     49.07741  eV     2   --> G_4-           
     e( 61 - 61) =     49.25581  eV     1   --> G_4+           
     e( 62 - 62) =     49.43893  eV     1   --> G_3+           
     e( 63 - 63) =     50.87937  eV     1   --> G_3+           
     e( 64 - 64) =     51.53552  eV     1   --> G_4+           
     e( 65 - 65) =     52.75725  eV     1   --> G_4+           
     e( 66 - 66) =     53.17532  eV     1   --> G_3+           
     e( 67 - 67) =     54.04514  eV     1   --> G_3-           
     e( 68 - 68) =     54.05122  eV     1   --> G_4-           
     e( 69 - 69) =     56.15043  eV     1   --> G_4-           
     e( 70 - 70) =     56.30604  eV     1   --> G_3-           
     e( 71 - 71) =     56.94262  eV     1   --> G_4-           
     e( 72 - 72) =     57.24018  eV     1   --> G_3-           
     e( 73 - 73) =     57.98829  eV     1   --> G_4+           
     e( 74 - 74) =     58.01294  eV     1   --> G_3+           
     e( 75 - 75) =     60.34478  eV     1   --> G_4+           
     e( 76 - 76) =     60.34537  eV     1   --> G_3+           
     e( 77 - 77) =     60.60951  eV     1   --> G_4-           
     e( 78 - 78) =     60.61652  eV     1   --> G_3-           
     e( 79 - 79) =     61.48153  eV     1   --> G_4-           
     e( 80 - 80) =     61.48458  eV     1   --> G_3-           
     e( 81 - 81) =     63.67190  eV     1   --> G_4+           
     e( 82 - 82) =     63.88690  eV     1   --> G_3+           
     e( 83 - 83) =     64.91561  eV     1   --> G_3-           
     e( 84 - 84) =     65.35064  eV     1   --> G_4-           
     e( 85 - 85) =     67.98667  eV     1   --> G_3+           
     e( 86 - 86) =     68.85598  eV     1   --> G_4+           
     e( 87 - 87) =     72.06394  eV     1   --> G_4+           
     e( 88 - 88) =     72.06442  eV     1   --> G_3+           
     e( 89 - 90) =     72.73489  eV     2   --> G_3+           
     e( 89 - 90) =     72.73489  eV     2   --> G_4+           
     e( 91 - 91) =     75.14893  eV     1   --> G_3-           
     e( 92 - 92) =     75.37179  eV     1   --> G_4-           
     e( 93 - 93) =     76.85291  eV     1   --> G_4-           
     e( 94 - 94) =     76.94795  eV     1   --> G_4-           
     e( 95 - 95) =     76.95340  eV     1   --> G_3-           
     e( 96 - 96) =     77.00926  eV     1   --> G_3-           
     e( 97 - 97) =     77.16748  eV     1   --> G_4+           
     e( 98 - 98) =     77.32873  eV     1   --> G_4-           

 **************************************************************************
 
     BANDS        :   3m17.91s CPU   6m22.10s WALL

 
   This run was terminated on:  16:56:32  25Aug2023            

=------------------------------------------------------------------------------=
   JOB DONE.
=------------------------------------------------------------------------------=
