
     Program PWSCF v.7.0 starts on 25Aug2023 at 16:44: 2 

     This program is part of the open-source Quantum ESPRESSO suite
     for quantum simulation of materials; please cite
         "P. Giannozzi et al., J. Phys.:Condens. Matter 21 395502 (2009);
         "P. Giannozzi et al., J. Phys.:Condens. Matter 29 465901 (2017);
         "P. Giannozzi et al., J. Chem. Phys. 152 154105 (2020);
          URL http://www.quantum-espresso.org", 
     in publications or presentations arising from this work. More details at
     http://www.quantum-espresso.org/quote

     Parallel version (MPI), running on    12 processors

     MPI processes distributed on     1 nodes
     R & G space division:  proc/nbgrp/npool/nimage =      12
     56995 MiB available memory on the printing compute node when the environment starts
 
     Waiting for input...
     Reading input from standard input

     Current dimensions of program PWSCF are:
     Max number of different atomic species (ntypx) = 10
     Max number of k-points (npk) =  40000
     Max angular momentum in pseudopotentials (lmaxx) =  4
     file Pt.rel-pbe-n-rrkjus_psl.0.1.UPF: wavefunction(s)  5D renormalized

     Fixed quantization axis for GGA:     1.000000    0.000000    0.000000

     Subspace diagonalization in iterative solution of the eigenvalue problem:
     a serial algorithm will be used

 
     Parallelization info
     --------------------
     sticks:   dense  smooth     PW     G-vecs:    dense   smooth      PW
     Min         137      45     14                 5843     1095     194
     Max         138      46     15                 5848     1100     197
     Sum        1649     545    177                70151    13173    2357
 
     Using Slab Decomposition
 


     bravais-lattice index     =            6
     lattice parameter (alat)  =       5.1554  a.u.
     unit-cell volume          =     189.8042 (a.u.)^3
     number of atoms/cell      =            2
     number of atomic types    =            2
     number of electrons       =        26.00
     number of Kohn-Sham states=           98
     kinetic-energy cutoff     =      64.0000  Ry
     charge density cutoff     =     782.0000  Ry
     Exchange-correlation= PBE
                           (   1   4   3   4   0   0   0)
     Noncollinear calculation with spin-orbit


     celldm(1)=   5.155443  celldm(2)=   0.000000  celldm(3)=   1.385185
     celldm(4)=   0.000000  celldm(5)=   0.000000  celldm(6)=   0.000000

     crystal axes: (cart. coord. in units of alat)
               a(1) = (   1.000000   0.000000   0.000000 )  
               a(2) = (   0.000000   1.000000   0.000000 )  
               a(3) = (   0.000000   0.000000   1.385185 )  

     reciprocal axes: (cart. coord. in units 2 pi/alat)
               b(1) = (  1.000000  0.000000  0.000000 )  
               b(2) = (  0.000000  1.000000  0.000000 )  
               b(3) = (  0.000000  0.000000  0.721925 )  


     PseudoPot. # 1 for Fe read from file:
     /home/koretsune/PWSCF/pseudo_psl031/Fe.rel-pbe-spn-rrkjus_psl.0.2.1.UPF
     MD5 check sum: e4688d448a4fb973b820eb5309e921a0
     Pseudo is Ultrasoft + core correction, Zval = 16.0
     Generated using "atomic" code by A. Dal Corso  v.5.0.99 svn rev. 10869
     Using radial grid of 1191 points, 10 beta functions with: 
                l(1) =   0
                l(2) =   0
                l(3) =   1
                l(4) =   1
                l(5) =   1
                l(6) =   1
                l(7) =   2
                l(8) =   2
                l(9) =   2
               l(10) =   2
     Q(r) pseudized with 0 coefficients 


     PseudoPot. # 2 for Pt read from file:
     /home/koretsune/PWSCF/pseudo_psl031/Pt.rel-pbe-n-rrkjus_psl.0.1.UPF
     MD5 check sum: 75c9b7c8bba3558fb64ef7de01c2f511
     Pseudo is Ultrasoft + core correction, Zval = 10.0
     Generated using "atomic" code by A. Dal Corso  v.5.0.99 svn rev. 10869
     Using radial grid of 1277 points, 10 beta functions with: 
                l(1) =   0
                l(2) =   0
                l(3) =   1
                l(4) =   1
                l(5) =   1
                l(6) =   1
                l(7) =   2
                l(8) =   2
                l(9) =   2
               l(10) =   2
     Q(r) pseudized with 0 coefficients 


     atomic species   valence    mass     pseudopotential
        Fe            16.00    55.84500     Fe( 1.00)
        Pt            10.00   195.08400     Pt( 1.00)

      8 Sym. Ops., with inversion, found


                                    s                        frac. trans.

      isym =  1     identity                                     

 Time Reversal            0
 cryst.   s( 1) = (     1          0          0      )
                  (     0          1          0      )
                  (     0          0          1      )

 cart.    s( 1) = (  1.0000000  0.0000000  0.0000000 )
                  (  0.0000000  1.0000000  0.0000000 )
                  (  0.0000000  0.0000000  1.0000000 )


      isym =  2     180 deg rotation - cart. axis [0,0,1]        

 Time Reversal            1
 cryst.   s( 2) = (    -1          0          0      )
                  (     0         -1          0      )
                  (     0          0          1      )

 cart.    s( 2) = ( -1.0000000  0.0000000  0.0000000 )
                  (  0.0000000 -1.0000000  0.0000000 )
                  (  0.0000000  0.0000000  1.0000000 )


      isym =  3     180 deg rotation - cart. axis [0,1,0]        

 Time Reversal            1
 cryst.   s( 3) = (    -1          0          0      )
                  (     0          1          0      )
                  (     0          0         -1      )

 cart.    s( 3) = ( -1.0000000  0.0000000  0.0000000 )
                  (  0.0000000  1.0000000  0.0000000 )
                  (  0.0000000  0.0000000 -1.0000000 )


      isym =  4     180 deg rotation - cart. axis [1,0,0]        

 Time Reversal            0
 cryst.   s( 4) = (     1          0          0      )
                  (     0         -1          0      )
                  (     0          0         -1      )

 cart.    s( 4) = (  1.0000000  0.0000000  0.0000000 )
                  (  0.0000000 -1.0000000  0.0000000 )
                  (  0.0000000  0.0000000 -1.0000000 )


      isym =  5     inversion                                    

 Time Reversal            0
 cryst.   s( 5) = (    -1          0          0      )
                  (     0         -1          0      )
                  (     0          0         -1      )

 cart.    s( 5) = ( -1.0000000  0.0000000  0.0000000 )
                  (  0.0000000 -1.0000000  0.0000000 )
                  (  0.0000000  0.0000000 -1.0000000 )


      isym =  6     inv. 180 deg rotation - cart. axis [0,0,1]   

 Time Reversal            1
 cryst.   s( 6) = (     1          0          0      )
                  (     0          1          0      )
                  (     0          0         -1      )

 cart.    s( 6) = (  1.0000000  0.0000000  0.0000000 )
                  (  0.0000000  1.0000000  0.0000000 )
                  (  0.0000000  0.0000000 -1.0000000 )


      isym =  7     inv. 180 deg rotation - cart. axis [0,1,0]   

 Time Reversal            1
 cryst.   s( 7) = (     1          0          0      )
                  (     0         -1          0      )
                  (     0          0          1      )

 cart.    s( 7) = (  1.0000000  0.0000000  0.0000000 )
                  (  0.0000000 -1.0000000  0.0000000 )
                  (  0.0000000  0.0000000  1.0000000 )


      isym =  8     inv. 180 deg rotation - cart. axis [1,0,0]   

 Time Reversal            0
 cryst.   s( 8) = (    -1          0          0      )
                  (     0          1          0      )
                  (     0          0          1      )

 cart.    s( 8) = ( -1.0000000  0.0000000  0.0000000 )
                  (  0.0000000  1.0000000  0.0000000 )
                  (  0.0000000  0.0000000  1.0000000 )


     the magnetic double point group is D_2h (mmm)  [C_2h (2/m) ]
     using the double point group C_2h (2/m) 
     there are  8 classes and  4 irreducible representations
     the character table:

       E     -E    C2    -C2   i     -i    s_h   -s_h 
                                                      
G_3+   1.00 -1.00  0.00  0.00  1.00 -1.00  0.00  0.00
G_4+   1.00 -1.00  0.00  0.00  1.00 -1.00  0.00  0.00
G_3-   1.00 -1.00  0.00  0.00 -1.00  1.00  0.00  0.00
G_4-   1.00 -1.00  0.00  0.00 -1.00  1.00  0.00  0.00

     imaginary part

       E     -E    C2    -C2   i     -i    s_h   -s_h 
                                                      
G_3+   0.00  0.00  1.00 -1.00  0.00  0.00  1.00 -1.00
G_4+   0.00  0.00 -1.00  1.00  0.00  0.00 -1.00  1.00
G_3-   0.00  0.00  1.00 -1.00  0.00  0.00 -1.00  1.00
G_4-   0.00  0.00 -1.00  1.00  0.00  0.00  1.00 -1.00

     the symmetry operations in each class and the name of the first element:

     E             1
          identity                                               
     -E           -1
          identity E                                             
     C2            2
          180 deg rotation - cart. axis [1,0,0]                  
     -C2          -2
          180 deg rotation - cart. axis [1,0,0] E                
     i             3
          inversion                                              
     -i           -3
          inversion E                                            
     s_h           4
          inv. 180 deg rotation - cart. axis [1,0,0]             
     -s_h         -4
          inv. 180 deg rotation - cart. axis [1,0,0] E           

   Cartesian axes

     site n.     atom                  positions (alat units)
         1           Fe  tau(   1) = (   0.0000000   0.0000000   0.0000000  )
         2           Pt  tau(   2) = (   0.5000000   0.5000000   0.6925927  )

   Crystallographic axes

     site n.     atom                  positions (cryst. coord.)
         1           Fe  tau(   1) = (  0.0000000  0.0000000  0.0000000  )
         2           Pt  tau(   2) = (  0.5000000  0.5000000  0.5000000  )

     number of k points=   351  Methfessel-Paxton smearing, width (Ry)=  0.0100
                       cart. coord. in units 2pi/alat
        k(    1) = (   0.0000000   0.0000000   0.0000000), wk =   0.0028490
        k(    2) = (   0.0000000   0.0100000   0.0000000), wk =   0.0028490
        k(    3) = (   0.0000000   0.0200000   0.0000000), wk =   0.0028490
        k(    4) = (   0.0000000   0.0300000   0.0000000), wk =   0.0028490
        k(    5) = (   0.0000000   0.0400000   0.0000000), wk =   0.0028490
        k(    6) = (   0.0000000   0.0500000   0.0000000), wk =   0.0028490
        k(    7) = (   0.0000000   0.0600000   0.0000000), wk =   0.0028490
        k(    8) = (   0.0000000   0.0700000   0.0000000), wk =   0.0028490
        k(    9) = (   0.0000000   0.0800000   0.0000000), wk =   0.0028490
        k(   10) = (   0.0000000   0.0900000   0.0000000), wk =   0.0028490
        k(   11) = (   0.0000000   0.1000000   0.0000000), wk =   0.0028490
        k(   12) = (   0.0000000   0.1100000   0.0000000), wk =   0.0028490
        k(   13) = (   0.0000000   0.1200000   0.0000000), wk =   0.0028490
        k(   14) = (   0.0000000   0.1300000   0.0000000), wk =   0.0028490
        k(   15) = (   0.0000000   0.1400000   0.0000000), wk =   0.0028490
        k(   16) = (   0.0000000   0.1500000   0.0000000), wk =   0.0028490
        k(   17) = (   0.0000000   0.1600000   0.0000000), wk =   0.0028490
        k(   18) = (   0.0000000   0.1700000   0.0000000), wk =   0.0028490
        k(   19) = (   0.0000000   0.1800000   0.0000000), wk =   0.0028490
        k(   20) = (   0.0000000   0.1900000   0.0000000), wk =   0.0028490
        k(   21) = (   0.0000000   0.2000000   0.0000000), wk =   0.0028490
        k(   22) = (   0.0000000   0.2100000   0.0000000), wk =   0.0028490
        k(   23) = (   0.0000000   0.2200000   0.0000000), wk =   0.0028490
        k(   24) = (   0.0000000   0.2300000   0.0000000), wk =   0.0028490
        k(   25) = (   0.0000000   0.2400000   0.0000000), wk =   0.0028490
        k(   26) = (   0.0000000   0.2500000   0.0000000), wk =   0.0028490
        k(   27) = (   0.0000000   0.2600000   0.0000000), wk =   0.0028490
        k(   28) = (   0.0000000   0.2700000   0.0000000), wk =   0.0028490
        k(   29) = (   0.0000000   0.2800000   0.0000000), wk =   0.0028490
        k(   30) = (   0.0000000   0.2900000   0.0000000), wk =   0.0028490
        k(   31) = (   0.0000000   0.3000000   0.0000000), wk =   0.0028490
        k(   32) = (   0.0000000   0.3100000   0.0000000), wk =   0.0028490
        k(   33) = (   0.0000000   0.3200000   0.0000000), wk =   0.0028490
        k(   34) = (   0.0000000   0.3300000   0.0000000), wk =   0.0028490
        k(   35) = (   0.0000000   0.3400000   0.0000000), wk =   0.0028490
        k(   36) = (   0.0000000   0.3500000   0.0000000), wk =   0.0028490
        k(   37) = (   0.0000000   0.3600000   0.0000000), wk =   0.0028490
        k(   38) = (   0.0000000   0.3700000   0.0000000), wk =   0.0028490
        k(   39) = (   0.0000000   0.3800000   0.0000000), wk =   0.0028490
        k(   40) = (   0.0000000   0.3900000   0.0000000), wk =   0.0028490
        k(   41) = (   0.0000000   0.4000000   0.0000000), wk =   0.0028490
        k(   42) = (   0.0000000   0.4100000   0.0000000), wk =   0.0028490
        k(   43) = (   0.0000000   0.4200000   0.0000000), wk =   0.0028490
        k(   44) = (   0.0000000   0.4300000   0.0000000), wk =   0.0028490
        k(   45) = (   0.0000000   0.4400000   0.0000000), wk =   0.0028490
        k(   46) = (   0.0000000   0.4500000   0.0000000), wk =   0.0028490
        k(   47) = (   0.0000000   0.4600000   0.0000000), wk =   0.0028490
        k(   48) = (   0.0000000   0.4700000   0.0000000), wk =   0.0028490
        k(   49) = (   0.0000000   0.4800000   0.0000000), wk =   0.0028490
        k(   50) = (   0.0000000   0.4900000   0.0000000), wk =   0.0028490
        k(   51) = (   0.0000000   0.5000000   0.0000000), wk =   0.0028490
        k(   52) = (   0.0100000   0.5000000   0.0000000), wk =   0.0028490
        k(   53) = (   0.0200000   0.5000000   0.0000000), wk =   0.0028490
        k(   54) = (   0.0300000   0.5000000   0.0000000), wk =   0.0028490
        k(   55) = (   0.0400000   0.5000000   0.0000000), wk =   0.0028490
        k(   56) = (   0.0500000   0.5000000   0.0000000), wk =   0.0028490
        k(   57) = (   0.0600000   0.5000000   0.0000000), wk =   0.0028490
        k(   58) = (   0.0700000   0.5000000   0.0000000), wk =   0.0028490
        k(   59) = (   0.0800000   0.5000000   0.0000000), wk =   0.0028490
        k(   60) = (   0.0900000   0.5000000   0.0000000), wk =   0.0028490
        k(   61) = (   0.1000000   0.5000000   0.0000000), wk =   0.0028490
        k(   62) = (   0.1100000   0.5000000   0.0000000), wk =   0.0028490
        k(   63) = (   0.1200000   0.5000000   0.0000000), wk =   0.0028490
        k(   64) = (   0.1300000   0.5000000   0.0000000), wk =   0.0028490
        k(   65) = (   0.1400000   0.5000000   0.0000000), wk =   0.0028490
        k(   66) = (   0.1500000   0.5000000   0.0000000), wk =   0.0028490
        k(   67) = (   0.1600000   0.5000000   0.0000000), wk =   0.0028490
        k(   68) = (   0.1700000   0.5000000   0.0000000), wk =   0.0028490
        k(   69) = (   0.1800000   0.5000000   0.0000000), wk =   0.0028490
        k(   70) = (   0.1900000   0.5000000   0.0000000), wk =   0.0028490
        k(   71) = (   0.2000000   0.5000000   0.0000000), wk =   0.0028490
        k(   72) = (   0.2100000   0.5000000   0.0000000), wk =   0.0028490
        k(   73) = (   0.2200000   0.5000000   0.0000000), wk =   0.0028490
        k(   74) = (   0.2300000   0.5000000   0.0000000), wk =   0.0028490
        k(   75) = (   0.2400000   0.5000000   0.0000000), wk =   0.0028490
        k(   76) = (   0.2500000   0.5000000   0.0000000), wk =   0.0028490
        k(   77) = (   0.2600000   0.5000000   0.0000000), wk =   0.0028490
        k(   78) = (   0.2700000   0.5000000   0.0000000), wk =   0.0028490
        k(   79) = (   0.2800000   0.5000000   0.0000000), wk =   0.0028490
        k(   80) = (   0.2900000   0.5000000   0.0000000), wk =   0.0028490
        k(   81) = (   0.3000000   0.5000000   0.0000000), wk =   0.0028490
        k(   82) = (   0.3100000   0.5000000   0.0000000), wk =   0.0028490
        k(   83) = (   0.3200000   0.5000000   0.0000000), wk =   0.0028490
        k(   84) = (   0.3300000   0.5000000   0.0000000), wk =   0.0028490
        k(   85) = (   0.3400000   0.5000000   0.0000000), wk =   0.0028490
        k(   86) = (   0.3500000   0.5000000   0.0000000), wk =   0.0028490
        k(   87) = (   0.3600000   0.5000000   0.0000000), wk =   0.0028490
        k(   88) = (   0.3700000   0.5000000   0.0000000), wk =   0.0028490
        k(   89) = (   0.3800000   0.5000000   0.0000000), wk =   0.0028490
        k(   90) = (   0.3900000   0.5000000   0.0000000), wk =   0.0028490
        k(   91) = (   0.4000000   0.5000000   0.0000000), wk =   0.0028490
        k(   92) = (   0.4100000   0.5000000   0.0000000), wk =   0.0028490
        k(   93) = (   0.4200000   0.5000000   0.0000000), wk =   0.0028490
        k(   94) = (   0.4300000   0.5000000   0.0000000), wk =   0.0028490
        k(   95) = (   0.4400000   0.5000000   0.0000000), wk =   0.0028490
        k(   96) = (   0.4500000   0.5000000   0.0000000), wk =   0.0028490
        k(   97) = (   0.4600000   0.5000000   0.0000000), wk =   0.0028490
        k(   98) = (   0.4700000   0.5000000   0.0000000), wk =   0.0028490
        k(   99) = (   0.4800000   0.5000000   0.0000000), wk =   0.0028490
        k(  100) = (   0.4900000   0.5000000   0.0000000), wk =   0.0028490
        k(  101) = (   0.5000000   0.5000000   0.0000000), wk =   0.0028490
        k(  102) = (   0.4900000   0.4900000   0.0000000), wk =   0.0028490
        k(  103) = (   0.4800000   0.4800000   0.0000000), wk =   0.0028490
        k(  104) = (   0.4700000   0.4700000   0.0000000), wk =   0.0028490
        k(  105) = (   0.4600000   0.4600000   0.0000000), wk =   0.0028490
        k(  106) = (   0.4500000   0.4500000   0.0000000), wk =   0.0028490
        k(  107) = (   0.4400000   0.4400000   0.0000000), wk =   0.0028490
        k(  108) = (   0.4300000   0.4300000   0.0000000), wk =   0.0028490
        k(  109) = (   0.4200000   0.4200000   0.0000000), wk =   0.0028490
        k(  110) = (   0.4100000   0.4100000   0.0000000), wk =   0.0028490
        k(  111) = (   0.4000000   0.4000000   0.0000000), wk =   0.0028490
        k(  112) = (   0.3900000   0.3900000   0.0000000), wk =   0.0028490
        k(  113) = (   0.3800000   0.3800000   0.0000000), wk =   0.0028490
        k(  114) = (   0.3700000   0.3700000   0.0000000), wk =   0.0028490
        k(  115) = (   0.3600000   0.3600000   0.0000000), wk =   0.0028490
        k(  116) = (   0.3500000   0.3500000   0.0000000), wk =   0.0028490
        k(  117) = (   0.3400000   0.3400000   0.0000000), wk =   0.0028490
        k(  118) = (   0.3300000   0.3300000   0.0000000), wk =   0.0028490
        k(  119) = (   0.3200000   0.3200000   0.0000000), wk =   0.0028490
        k(  120) = (   0.3100000   0.3100000   0.0000000), wk =   0.0028490
        k(  121) = (   0.3000000   0.3000000   0.0000000), wk =   0.0028490
        k(  122) = (   0.2900000   0.2900000   0.0000000), wk =   0.0028490
        k(  123) = (   0.2800000   0.2800000   0.0000000), wk =   0.0028490
        k(  124) = (   0.2700000   0.2700000   0.0000000), wk =   0.0028490
        k(  125) = (   0.2600000   0.2600000   0.0000000), wk =   0.0028490
        k(  126) = (   0.2500000   0.2500000   0.0000000), wk =   0.0028490
        k(  127) = (   0.2400000   0.2400000   0.0000000), wk =   0.0028490
        k(  128) = (   0.2300000   0.2300000   0.0000000), wk =   0.0028490
        k(  129) = (   0.2200000   0.2200000   0.0000000), wk =   0.0028490
        k(  130) = (   0.2100000   0.2100000   0.0000000), wk =   0.0028490
        k(  131) = (   0.2000000   0.2000000   0.0000000), wk =   0.0028490
        k(  132) = (   0.1900000   0.1900000   0.0000000), wk =   0.0028490
        k(  133) = (   0.1800000   0.1800000   0.0000000), wk =   0.0028490
        k(  134) = (   0.1700000   0.1700000   0.0000000), wk =   0.0028490
        k(  135) = (   0.1600000   0.1600000   0.0000000), wk =   0.0028490
        k(  136) = (   0.1500000   0.1500000   0.0000000), wk =   0.0028490
        k(  137) = (   0.1400000   0.1400000   0.0000000), wk =   0.0028490
        k(  138) = (   0.1300000   0.1300000   0.0000000), wk =   0.0028490
        k(  139) = (   0.1200000   0.1200000   0.0000000), wk =   0.0028490
        k(  140) = (   0.1100000   0.1100000   0.0000000), wk =   0.0028490
        k(  141) = (   0.1000000   0.1000000   0.0000000), wk =   0.0028490
        k(  142) = (   0.0900000   0.0900000   0.0000000), wk =   0.0028490
        k(  143) = (   0.0800000   0.0800000   0.0000000), wk =   0.0028490
        k(  144) = (   0.0700000   0.0700000   0.0000000), wk =   0.0028490
        k(  145) = (   0.0600000   0.0600000   0.0000000), wk =   0.0028490
        k(  146) = (   0.0500000   0.0500000   0.0000000), wk =   0.0028490
        k(  147) = (   0.0400000   0.0400000   0.0000000), wk =   0.0028490
        k(  148) = (   0.0300000   0.0300000   0.0000000), wk =   0.0028490
        k(  149) = (   0.0200000   0.0200000   0.0000000), wk =   0.0028490
        k(  150) = (   0.0100000   0.0100000   0.0000000), wk =   0.0028490
        k(  151) = (   0.0000000   0.0000000   0.0000000), wk =   0.0028490
        k(  152) = (   0.0000000   0.0000000   0.0072192), wk =   0.0028490
        k(  153) = (   0.0000000   0.0000000   0.0144385), wk =   0.0028490
        k(  154) = (   0.0000000   0.0000000   0.0216577), wk =   0.0028490
        k(  155) = (   0.0000000   0.0000000   0.0288770), wk =   0.0028490
        k(  156) = (   0.0000000   0.0000000   0.0360962), wk =   0.0028490
        k(  157) = (   0.0000000   0.0000000   0.0433155), wk =   0.0028490
        k(  158) = (   0.0000000   0.0000000   0.0505347), wk =   0.0028490
        k(  159) = (   0.0000000   0.0000000   0.0577540), wk =   0.0028490
        k(  160) = (   0.0000000   0.0000000   0.0649732), wk =   0.0028490
        k(  161) = (   0.0000000   0.0000000   0.0721925), wk =   0.0028490
        k(  162) = (   0.0000000   0.0000000   0.0794117), wk =   0.0028490
        k(  163) = (   0.0000000   0.0000000   0.0866310), wk =   0.0028490
        k(  164) = (   0.0000000   0.0000000   0.0938502), wk =   0.0028490
        k(  165) = (   0.0000000   0.0000000   0.1010695), wk =   0.0028490
        k(  166) = (   0.0000000   0.0000000   0.1082887), wk =   0.0028490
        k(  167) = (   0.0000000   0.0000000   0.1155080), wk =   0.0028490
        k(  168) = (   0.0000000   0.0000000   0.1227272), wk =   0.0028490
        k(  169) = (   0.0000000   0.0000000   0.1299465), wk =   0.0028490
        k(  170) = (   0.0000000   0.0000000   0.1371657), wk =   0.0028490
        k(  171) = (   0.0000000   0.0000000   0.1443850), wk =   0.0028490
        k(  172) = (   0.0000000   0.0000000   0.1516042), wk =   0.0028490
        k(  173) = (   0.0000000   0.0000000   0.1588235), wk =   0.0028490
        k(  174) = (   0.0000000   0.0000000   0.1660427), wk =   0.0028490
        k(  175) = (   0.0000000   0.0000000   0.1732620), wk =   0.0028490
        k(  176) = (   0.0000000   0.0000000   0.1804812), wk =   0.0028490
        k(  177) = (   0.0000000   0.0000000   0.1877005), wk =   0.0028490
        k(  178) = (   0.0000000   0.0000000   0.1949197), wk =   0.0028490
        k(  179) = (   0.0000000   0.0000000   0.2021390), wk =   0.0028490
        k(  180) = (   0.0000000   0.0000000   0.2093582), wk =   0.0028490
        k(  181) = (   0.0000000   0.0000000   0.2165775), wk =   0.0028490
        k(  182) = (   0.0000000   0.0000000   0.2237967), wk =   0.0028490
        k(  183) = (   0.0000000   0.0000000   0.2310160), wk =   0.0028490
        k(  184) = (   0.0000000   0.0000000   0.2382352), wk =   0.0028490
        k(  185) = (   0.0000000   0.0000000   0.2454545), wk =   0.0028490
        k(  186) = (   0.0000000   0.0000000   0.2526737), wk =   0.0028490
        k(  187) = (   0.0000000   0.0000000   0.2598930), wk =   0.0028490
        k(  188) = (   0.0000000   0.0000000   0.2671122), wk =   0.0028490
        k(  189) = (   0.0000000   0.0000000   0.2743315), wk =   0.0028490
        k(  190) = (   0.0000000   0.0000000   0.2815507), wk =   0.0028490
        k(  191) = (   0.0000000   0.0000000   0.2887700), wk =   0.0028490
        k(  192) = (   0.0000000   0.0000000   0.2959892), wk =   0.0028490
        k(  193) = (   0.0000000   0.0000000   0.3032085), wk =   0.0028490
        k(  194) = (   0.0000000   0.0000000   0.3104277), wk =   0.0028490
        k(  195) = (   0.0000000   0.0000000   0.3176470), wk =   0.0028490
        k(  196) = (   0.0000000   0.0000000   0.3248662), wk =   0.0028490
        k(  197) = (   0.0000000   0.0000000   0.3320855), wk =   0.0028490
        k(  198) = (   0.0000000   0.0000000   0.3393047), wk =   0.0028490
        k(  199) = (   0.0000000   0.0000000   0.3465240), wk =   0.0028490
        k(  200) = (   0.0000000   0.0000000   0.3537432), wk =   0.0028490
        k(  201) = (   0.0000000   0.0000000   0.3609625), wk =   0.0028490
        k(  202) = (   0.0000000   0.0100000   0.3609625), wk =   0.0028490
        k(  203) = (   0.0000000   0.0200000   0.3609625), wk =   0.0028490
        k(  204) = (   0.0000000   0.0300000   0.3609625), wk =   0.0028490
        k(  205) = (   0.0000000   0.0400000   0.3609625), wk =   0.0028490
        k(  206) = (   0.0000000   0.0500000   0.3609625), wk =   0.0028490
        k(  207) = (   0.0000000   0.0600000   0.3609625), wk =   0.0028490
        k(  208) = (   0.0000000   0.0700000   0.3609625), wk =   0.0028490
        k(  209) = (   0.0000000   0.0800000   0.3609625), wk =   0.0028490
        k(  210) = (   0.0000000   0.0900000   0.3609625), wk =   0.0028490
        k(  211) = (   0.0000000   0.1000000   0.3609625), wk =   0.0028490
        k(  212) = (   0.0000000   0.1100000   0.3609625), wk =   0.0028490
        k(  213) = (   0.0000000   0.1200000   0.3609625), wk =   0.0028490
        k(  214) = (   0.0000000   0.1300000   0.3609625), wk =   0.0028490
        k(  215) = (   0.0000000   0.1400000   0.3609625), wk =   0.0028490
        k(  216) = (   0.0000000   0.1500000   0.3609625), wk =   0.0028490
        k(  217) = (   0.0000000   0.1600000   0.3609625), wk =   0.0028490
        k(  218) = (   0.0000000   0.1700000   0.3609625), wk =   0.0028490
        k(  219) = (   0.0000000   0.1800000   0.3609625), wk =   0.0028490
        k(  220) = (   0.0000000   0.1900000   0.3609625), wk =   0.0028490
        k(  221) = (   0.0000000   0.2000000   0.3609625), wk =   0.0028490
        k(  222) = (   0.0000000   0.2100000   0.3609625), wk =   0.0028490
        k(  223) = (   0.0000000   0.2200000   0.3609625), wk =   0.0028490
        k(  224) = (   0.0000000   0.2300000   0.3609625), wk =   0.0028490
        k(  225) = (   0.0000000   0.2400000   0.3609625), wk =   0.0028490
        k(  226) = (   0.0000000   0.2500000   0.3609625), wk =   0.0028490
        k(  227) = (   0.0000000   0.2600000   0.3609625), wk =   0.0028490
        k(  228) = (   0.0000000   0.2700000   0.3609625), wk =   0.0028490
        k(  229) = (   0.0000000   0.2800000   0.3609625), wk =   0.0028490
        k(  230) = (   0.0000000   0.2900000   0.3609625), wk =   0.0028490
        k(  231) = (   0.0000000   0.3000000   0.3609625), wk =   0.0028490
        k(  232) = (   0.0000000   0.3100000   0.3609625), wk =   0.0028490
        k(  233) = (   0.0000000   0.3200000   0.3609625), wk =   0.0028490
        k(  234) = (   0.0000000   0.3300000   0.3609625), wk =   0.0028490
        k(  235) = (   0.0000000   0.3400000   0.3609625), wk =   0.0028490
        k(  236) = (   0.0000000   0.3500000   0.3609625), wk =   0.0028490
        k(  237) = (   0.0000000   0.3600000   0.3609625), wk =   0.0028490
        k(  238) = (   0.0000000   0.3700000   0.3609625), wk =   0.0028490
        k(  239) = (   0.0000000   0.3800000   0.3609625), wk =   0.0028490
        k(  240) = (   0.0000000   0.3900000   0.3609625), wk =   0.0028490
        k(  241) = (   0.0000000   0.4000000   0.3609625), wk =   0.0028490
        k(  242) = (   0.0000000   0.4100000   0.3609625), wk =   0.0028490
        k(  243) = (   0.0000000   0.4200000   0.3609625), wk =   0.0028490
        k(  244) = (   0.0000000   0.4300000   0.3609625), wk =   0.0028490
        k(  245) = (   0.0000000   0.4400000   0.3609625), wk =   0.0028490
        k(  246) = (   0.0000000   0.4500000   0.3609625), wk =   0.0028490
        k(  247) = (   0.0000000   0.4600000   0.3609625), wk =   0.0028490
        k(  248) = (   0.0000000   0.4700000   0.3609625), wk =   0.0028490
        k(  249) = (   0.0000000   0.4800000   0.3609625), wk =   0.0028490
        k(  250) = (   0.0000000   0.4900000   0.3609625), wk =   0.0028490
        k(  251) = (   0.0000000   0.5000000   0.3609625), wk =   0.0028490
        k(  252) = (   0.0100000   0.5000000   0.3609625), wk =   0.0028490
        k(  253) = (   0.0200000   0.5000000   0.3609625), wk =   0.0028490
        k(  254) = (   0.0300000   0.5000000   0.3609625), wk =   0.0028490
        k(  255) = (   0.0400000   0.5000000   0.3609625), wk =   0.0028490
        k(  256) = (   0.0500000   0.5000000   0.3609625), wk =   0.0028490
        k(  257) = (   0.0600000   0.5000000   0.3609625), wk =   0.0028490
        k(  258) = (   0.0700000   0.5000000   0.3609625), wk =   0.0028490
        k(  259) = (   0.0800000   0.5000000   0.3609625), wk =   0.0028490
        k(  260) = (   0.0900000   0.5000000   0.3609625), wk =   0.0028490
        k(  261) = (   0.1000000   0.5000000   0.3609625), wk =   0.0028490
        k(  262) = (   0.1100000   0.5000000   0.3609625), wk =   0.0028490
        k(  263) = (   0.1200000   0.5000000   0.3609625), wk =   0.0028490
        k(  264) = (   0.1300000   0.5000000   0.3609625), wk =   0.0028490
        k(  265) = (   0.1400000   0.5000000   0.3609625), wk =   0.0028490
        k(  266) = (   0.1500000   0.5000000   0.3609625), wk =   0.0028490
        k(  267) = (   0.1600000   0.5000000   0.3609625), wk =   0.0028490
        k(  268) = (   0.1700000   0.5000000   0.3609625), wk =   0.0028490
        k(  269) = (   0.1800000   0.5000000   0.3609625), wk =   0.0028490
        k(  270) = (   0.1900000   0.5000000   0.3609625), wk =   0.0028490
        k(  271) = (   0.2000000   0.5000000   0.3609625), wk =   0.0028490
        k(  272) = (   0.2100000   0.5000000   0.3609625), wk =   0.0028490
        k(  273) = (   0.2200000   0.5000000   0.3609625), wk =   0.0028490
        k(  274) = (   0.2300000   0.5000000   0.3609625), wk =   0.0028490
        k(  275) = (   0.2400000   0.5000000   0.3609625), wk =   0.0028490
        k(  276) = (   0.2500000   0.5000000   0.3609625), wk =   0.0028490
        k(  277) = (   0.2600000   0.5000000   0.3609625), wk =   0.0028490
        k(  278) = (   0.2700000   0.5000000   0.3609625), wk =   0.0028490
        k(  279) = (   0.2800000   0.5000000   0.3609625), wk =   0.0028490
        k(  280) = (   0.2900000   0.5000000   0.3609625), wk =   0.0028490
        k(  281) = (   0.3000000   0.5000000   0.3609625), wk =   0.0028490
        k(  282) = (   0.3100000   0.5000000   0.3609625), wk =   0.0028490
        k(  283) = (   0.3200000   0.5000000   0.3609625), wk =   0.0028490
        k(  284) = (   0.3300000   0.5000000   0.3609625), wk =   0.0028490
        k(  285) = (   0.3400000   0.5000000   0.3609625), wk =   0.0028490
        k(  286) = (   0.3500000   0.5000000   0.3609625), wk =   0.0028490
        k(  287) = (   0.3600000   0.5000000   0.3609625), wk =   0.0028490
        k(  288) = (   0.3700000   0.5000000   0.3609625), wk =   0.0028490
        k(  289) = (   0.3800000   0.5000000   0.3609625), wk =   0.0028490
        k(  290) = (   0.3900000   0.5000000   0.3609625), wk =   0.0028490
        k(  291) = (   0.4000000   0.5000000   0.3609625), wk =   0.0028490
        k(  292) = (   0.4100000   0.5000000   0.3609625), wk =   0.0028490
        k(  293) = (   0.4200000   0.5000000   0.3609625), wk =   0.0028490
        k(  294) = (   0.4300000   0.5000000   0.3609625), wk =   0.0028490
        k(  295) = (   0.4400000   0.5000000   0.3609625), wk =   0.0028490
        k(  296) = (   0.4500000   0.5000000   0.3609625), wk =   0.0028490
        k(  297) = (   0.4600000   0.5000000   0.3609625), wk =   0.0028490
        k(  298) = (   0.4700000   0.5000000   0.3609625), wk =   0.0028490
        k(  299) = (   0.4800000   0.5000000   0.3609625), wk =   0.0028490
        k(  300) = (   0.4900000   0.5000000   0.3609625), wk =   0.0028490
        k(  301) = (   0.5000000   0.5000000   0.3609625), wk =   0.0028490
        k(  302) = (   0.4900000   0.4900000   0.3609625), wk =   0.0028490
        k(  303) = (   0.4800000   0.4800000   0.3609625), wk =   0.0028490
        k(  304) = (   0.4700000   0.4700000   0.3609625), wk =   0.0028490
        k(  305) = (   0.4600000   0.4600000   0.3609625), wk =   0.0028490
        k(  306) = (   0.4500000   0.4500000   0.3609625), wk =   0.0028490
        k(  307) = (   0.4400000   0.4400000   0.3609625), wk =   0.0028490
        k(  308) = (   0.4300000   0.4300000   0.3609625), wk =   0.0028490
        k(  309) = (   0.4200000   0.4200000   0.3609625), wk =   0.0028490
        k(  310) = (   0.4100000   0.4100000   0.3609625), wk =   0.0028490
        k(  311) = (   0.4000000   0.4000000   0.3609625), wk =   0.0028490
        k(  312) = (   0.3900000   0.3900000   0.3609625), wk =   0.0028490
        k(  313) = (   0.3800000   0.3800000   0.3609625), wk =   0.0028490
        k(  314) = (   0.3700000   0.3700000   0.3609625), wk =   0.0028490
        k(  315) = (   0.3600000   0.3600000   0.3609625), wk =   0.0028490
        k(  316) = (   0.3500000   0.3500000   0.3609625), wk =   0.0028490
        k(  317) = (   0.3400000   0.3400000   0.3609625), wk =   0.0028490
        k(  318) = (   0.3300000   0.3300000   0.3609625), wk =   0.0028490
        k(  319) = (   0.3200000   0.3200000   0.3609625), wk =   0.0028490
        k(  320) = (   0.3100000   0.3100000   0.3609625), wk =   0.0028490
        k(  321) = (   0.3000000   0.3000000   0.3609625), wk =   0.0028490
        k(  322) = (   0.2900000   0.2900000   0.3609625), wk =   0.0028490
        k(  323) = (   0.2800000   0.2800000   0.3609625), wk =   0.0028490
        k(  324) = (   0.2700000   0.2700000   0.3609625), wk =   0.0028490
        k(  325) = (   0.2600000   0.2600000   0.3609625), wk =   0.0028490
        k(  326) = (   0.2500000   0.2500000   0.3609625), wk =   0.0028490
        k(  327) = (   0.2400000   0.2400000   0.3609625), wk =   0.0028490
        k(  328) = (   0.2300000   0.2300000   0.3609625), wk =   0.0028490
        k(  329) = (   0.2200000   0.2200000   0.3609625), wk =   0.0028490
        k(  330) = (   0.2100000   0.2100000   0.3609625), wk =   0.0028490
        k(  331) = (   0.2000000   0.2000000   0.3609625), wk =   0.0028490
        k(  332) = (   0.1900000   0.1900000   0.3609625), wk =   0.0028490
        k(  333) = (   0.1800000   0.1800000   0.3609625), wk =   0.0028490
        k(  334) = (   0.1700000   0.1700000   0.3609625), wk =   0.0028490
        k(  335) = (   0.1600000   0.1600000   0.3609625), wk =   0.0028490
        k(  336) = (   0.1500000   0.1500000   0.3609625), wk =   0.0028490
        k(  337) = (   0.1400000   0.1400000   0.3609625), wk =   0.0028490
        k(  338) = (   0.1300000   0.1300000   0.3609625), wk =   0.0028490
        k(  339) = (   0.1200000   0.1200000   0.3609625), wk =   0.0028490
        k(  340) = (   0.1100000   0.1100000   0.3609625), wk =   0.0028490
        k(  341) = (   0.1000000   0.1000000   0.3609625), wk =   0.0028490
        k(  342) = (   0.0900000   0.0900000   0.3609625), wk =   0.0028490
        k(  343) = (   0.0800000   0.0800000   0.3609625), wk =   0.0028490
        k(  344) = (   0.0700000   0.0700000   0.3609625), wk =   0.0028490
        k(  345) = (   0.0600000   0.0600000   0.3609625), wk =   0.0028490
        k(  346) = (   0.0500000   0.0500000   0.3609625), wk =   0.0028490
        k(  347) = (   0.0400000   0.0400000   0.3609625), wk =   0.0028490
        k(  348) = (   0.0300000   0.0300000   0.3609625), wk =   0.0028490
        k(  349) = (   0.0200000   0.0200000   0.3609625), wk =   0.0028490
        k(  350) = (   0.0100000   0.0100000   0.3609625), wk =   0.0028490
        k(  351) = (   0.0000000   0.0000000   0.3609625), wk =   0.0028490

                       cryst. coord.
        k(    1) = (   0.0000000   0.0000000   0.0000000), wk =   0.0028490
        k(    2) = (   0.0000000   0.0100000   0.0000000), wk =   0.0028490
        k(    3) = (   0.0000000   0.0200000   0.0000000), wk =   0.0028490
        k(    4) = (   0.0000000   0.0300000   0.0000000), wk =   0.0028490
        k(    5) = (   0.0000000   0.0400000   0.0000000), wk =   0.0028490
        k(    6) = (   0.0000000   0.0500000   0.0000000), wk =   0.0028490
        k(    7) = (   0.0000000   0.0600000   0.0000000), wk =   0.0028490
        k(    8) = (   0.0000000   0.0700000   0.0000000), wk =   0.0028490
        k(    9) = (   0.0000000   0.0800000   0.0000000), wk =   0.0028490
        k(   10) = (   0.0000000   0.0900000   0.0000000), wk =   0.0028490
        k(   11) = (   0.0000000   0.1000000   0.0000000), wk =   0.0028490
        k(   12) = (   0.0000000   0.1100000   0.0000000), wk =   0.0028490
        k(   13) = (   0.0000000   0.1200000   0.0000000), wk =   0.0028490
        k(   14) = (   0.0000000   0.1300000   0.0000000), wk =   0.0028490
        k(   15) = (   0.0000000   0.1400000   0.0000000), wk =   0.0028490
        k(   16) = (   0.0000000   0.1500000   0.0000000), wk =   0.0028490
        k(   17) = (   0.0000000   0.1600000   0.0000000), wk =   0.0028490
        k(   18) = (   0.0000000   0.1700000   0.0000000), wk =   0.0028490
        k(   19) = (   0.0000000   0.1800000   0.0000000), wk =   0.0028490
        k(   20) = (   0.0000000   0.1900000   0.0000000), wk =   0.0028490
        k(   21) = (   0.0000000   0.2000000   0.0000000), wk =   0.0028490
        k(   22) = (   0.0000000   0.2100000   0.0000000), wk =   0.0028490
        k(   23) = (   0.0000000   0.2200000   0.0000000), wk =   0.0028490
        k(   24) = (   0.0000000   0.2300000   0.0000000), wk =   0.0028490
        k(   25) = (   0.0000000   0.2400000   0.0000000), wk =   0.0028490
        k(   26) = (   0.0000000   0.2500000   0.0000000), wk =   0.0028490
        k(   27) = (   0.0000000   0.2600000   0.0000000), wk =   0.0028490
        k(   28) = (   0.0000000   0.2700000   0.0000000), wk =   0.0028490
        k(   29) = (   0.0000000   0.2800000   0.0000000), wk =   0.0028490
        k(   30) = (   0.0000000   0.2900000   0.0000000), wk =   0.0028490
        k(   31) = (   0.0000000   0.3000000   0.0000000), wk =   0.0028490
        k(   32) = (   0.0000000   0.3100000   0.0000000), wk =   0.0028490
        k(   33) = (   0.0000000   0.3200000   0.0000000), wk =   0.0028490
        k(   34) = (   0.0000000   0.3300000   0.0000000), wk =   0.0028490
        k(   35) = (   0.0000000   0.3400000   0.0000000), wk =   0.0028490
        k(   36) = (   0.0000000   0.3500000   0.0000000), wk =   0.0028490
        k(   37) = (   0.0000000   0.3600000   0.0000000), wk =   0.0028490
        k(   38) = (   0.0000000   0.3700000   0.0000000), wk =   0.0028490
        k(   39) = (   0.0000000   0.3800000   0.0000000), wk =   0.0028490
        k(   40) = (   0.0000000   0.3900000   0.0000000), wk =   0.0028490
        k(   41) = (   0.0000000   0.4000000   0.0000000), wk =   0.0028490
        k(   42) = (   0.0000000   0.4100000   0.0000000), wk =   0.0028490
        k(   43) = (   0.0000000   0.4200000   0.0000000), wk =   0.0028490
        k(   44) = (   0.0000000   0.4300000   0.0000000), wk =   0.0028490
        k(   45) = (   0.0000000   0.4400000   0.0000000), wk =   0.0028490
        k(   46) = (   0.0000000   0.4500000   0.0000000), wk =   0.0028490
        k(   47) = (   0.0000000   0.4600000   0.0000000), wk =   0.0028490
        k(   48) = (   0.0000000   0.4700000   0.0000000), wk =   0.0028490
        k(   49) = (   0.0000000   0.4800000   0.0000000), wk =   0.0028490
        k(   50) = (   0.0000000   0.4900000   0.0000000), wk =   0.0028490
        k(   51) = (   0.0000000   0.5000000   0.0000000), wk =   0.0028490
        k(   52) = (   0.0100000   0.5000000   0.0000000), wk =   0.0028490
        k(   53) = (   0.0200000   0.5000000   0.0000000), wk =   0.0028490
        k(   54) = (   0.0300000   0.5000000   0.0000000), wk =   0.0028490
        k(   55) = (   0.0400000   0.5000000   0.0000000), wk =   0.0028490
        k(   56) = (   0.0500000   0.5000000   0.0000000), wk =   0.0028490
        k(   57) = (   0.0600000   0.5000000   0.0000000), wk =   0.0028490
        k(   58) = (   0.0700000   0.5000000   0.0000000), wk =   0.0028490
        k(   59) = (   0.0800000   0.5000000   0.0000000), wk =   0.0028490
        k(   60) = (   0.0900000   0.5000000   0.0000000), wk =   0.0028490
        k(   61) = (   0.1000000   0.5000000   0.0000000), wk =   0.0028490
        k(   62) = (   0.1100000   0.5000000   0.0000000), wk =   0.0028490
        k(   63) = (   0.1200000   0.5000000   0.0000000), wk =   0.0028490
        k(   64) = (   0.1300000   0.5000000   0.0000000), wk =   0.0028490
        k(   65) = (   0.1400000   0.5000000   0.0000000), wk =   0.0028490
        k(   66) = (   0.1500000   0.5000000   0.0000000), wk =   0.0028490
        k(   67) = (   0.1600000   0.5000000   0.0000000), wk =   0.0028490
        k(   68) = (   0.1700000   0.5000000   0.0000000), wk =   0.0028490
        k(   69) = (   0.1800000   0.5000000   0.0000000), wk =   0.0028490
        k(   70) = (   0.1900000   0.5000000   0.0000000), wk =   0.0028490
        k(   71) = (   0.2000000   0.5000000   0.0000000), wk =   0.0028490
        k(   72) = (   0.2100000   0.5000000   0.0000000), wk =   0.0028490
        k(   73) = (   0.2200000   0.5000000   0.0000000), wk =   0.0028490
        k(   74) = (   0.2300000   0.5000000   0.0000000), wk =   0.0028490
        k(   75) = (   0.2400000   0.5000000   0.0000000), wk =   0.0028490
        k(   76) = (   0.2500000   0.5000000   0.0000000), wk =   0.0028490
        k(   77) = (   0.2600000   0.5000000   0.0000000), wk =   0.0028490
        k(   78) = (   0.2700000   0.5000000   0.0000000), wk =   0.0028490
        k(   79) = (   0.2800000   0.5000000   0.0000000), wk =   0.0028490
        k(   80) = (   0.2900000   0.5000000   0.0000000), wk =   0.0028490
        k(   81) = (   0.3000000   0.5000000   0.0000000), wk =   0.0028490
        k(   82) = (   0.3100000   0.5000000   0.0000000), wk =   0.0028490
        k(   83) = (   0.3200000   0.5000000   0.0000000), wk =   0.0028490
        k(   84) = (   0.3300000   0.5000000   0.0000000), wk =   0.0028490
        k(   85) = (   0.3400000   0.5000000   0.0000000), wk =   0.0028490
        k(   86) = (   0.3500000   0.5000000   0.0000000), wk =   0.0028490
        k(   87) = (   0.3600000   0.5000000   0.0000000), wk =   0.0028490
        k(   88) = (   0.3700000   0.5000000   0.0000000), wk =   0.0028490
        k(   89) = (   0.3800000   0.5000000   0.0000000), wk =   0.0028490
        k(   90) = (   0.3900000   0.5000000   0.0000000), wk =   0.0028490
        k(   91) = (   0.4000000   0.5000000   0.0000000), wk =   0.0028490
        k(   92) = (   0.4100000   0.5000000   0.0000000), wk =   0.0028490
        k(   93) = (   0.4200000   0.5000000   0.0000000), wk =   0.0028490
        k(   94) = (   0.4300000   0.5000000   0.0000000), wk =   0.0028490
        k(   95) = (   0.4400000   0.5000000   0.0000000), wk =   0.0028490
        k(   96) = (   0.4500000   0.5000000   0.0000000), wk =   0.0028490
        k(   97) = (   0.4600000   0.5000000   0.0000000), wk =   0.0028490
        k(   98) = (   0.4700000   0.5000000   0.0000000), wk =   0.0028490
        k(   99) = (   0.4800000   0.5000000   0.0000000), wk =   0.0028490
        k(  100) = (   0.4900000   0.5000000   0.0000000), wk =   0.0028490
        k(  101) = (   0.5000000   0.5000000   0.0000000), wk =   0.0028490
        k(  102) = (   0.4900000   0.4900000   0.0000000), wk =   0.0028490
        k(  103) = (   0.4800000   0.4800000   0.0000000), wk =   0.0028490
        k(  104) = (   0.4700000   0.4700000   0.0000000), wk =   0.0028490
        k(  105) = (   0.4600000   0.4600000   0.0000000), wk =   0.0028490
        k(  106) = (   0.4500000   0.4500000   0.0000000), wk =   0.0028490
        k(  107) = (   0.4400000   0.4400000   0.0000000), wk =   0.0028490
        k(  108) = (   0.4300000   0.4300000   0.0000000), wk =   0.0028490
        k(  109) = (   0.4200000   0.4200000   0.0000000), wk =   0.0028490
        k(  110) = (   0.4100000   0.4100000   0.0000000), wk =   0.0028490
        k(  111) = (   0.4000000   0.4000000   0.0000000), wk =   0.0028490
        k(  112) = (   0.3900000   0.3900000   0.0000000), wk =   0.0028490
        k(  113) = (   0.3800000   0.3800000   0.0000000), wk =   0.0028490
        k(  114) = (   0.3700000   0.3700000   0.0000000), wk =   0.0028490
        k(  115) = (   0.3600000   0.3600000   0.0000000), wk =   0.0028490
        k(  116) = (   0.3500000   0.3500000   0.0000000), wk =   0.0028490
        k(  117) = (   0.3400000   0.3400000   0.0000000), wk =   0.0028490
        k(  118) = (   0.3300000   0.3300000   0.0000000), wk =   0.0028490
        k(  119) = (   0.3200000   0.3200000   0.0000000), wk =   0.0028490
        k(  120) = (   0.3100000   0.3100000   0.0000000), wk =   0.0028490
        k(  121) = (   0.3000000   0.3000000   0.0000000), wk =   0.0028490
        k(  122) = (   0.2900000   0.2900000   0.0000000), wk =   0.0028490
        k(  123) = (   0.2800000   0.2800000   0.0000000), wk =   0.0028490
        k(  124) = (   0.2700000   0.2700000   0.0000000), wk =   0.0028490
        k(  125) = (   0.2600000   0.2600000   0.0000000), wk =   0.0028490
        k(  126) = (   0.2500000   0.2500000   0.0000000), wk =   0.0028490
        k(  127) = (   0.2400000   0.2400000   0.0000000), wk =   0.0028490
        k(  128) = (   0.2300000   0.2300000   0.0000000), wk =   0.0028490
        k(  129) = (   0.2200000   0.2200000   0.0000000), wk =   0.0028490
        k(  130) = (   0.2100000   0.2100000   0.0000000), wk =   0.0028490
        k(  131) = (   0.2000000   0.2000000   0.0000000), wk =   0.0028490
        k(  132) = (   0.1900000   0.1900000   0.0000000), wk =   0.0028490
        k(  133) = (   0.1800000   0.1800000   0.0000000), wk =   0.0028490
        k(  134) = (   0.1700000   0.1700000   0.0000000), wk =   0.0028490
        k(  135) = (   0.1600000   0.1600000   0.0000000), wk =   0.0028490
        k(  136) = (   0.1500000   0.1500000   0.0000000), wk =   0.0028490
        k(  137) = (   0.1400000   0.1400000   0.0000000), wk =   0.0028490
        k(  138) = (   0.1300000   0.1300000   0.0000000), wk =   0.0028490
        k(  139) = (   0.1200000   0.1200000   0.0000000), wk =   0.0028490
        k(  140) = (   0.1100000   0.1100000   0.0000000), wk =   0.0028490
        k(  141) = (   0.1000000   0.1000000   0.0000000), wk =   0.0028490
        k(  142) = (   0.0900000   0.0900000   0.0000000), wk =   0.0028490
        k(  143) = (   0.0800000   0.0800000   0.0000000), wk =   0.0028490
        k(  144) = (   0.0700000   0.0700000   0.0000000), wk =   0.0028490
        k(  145) = (   0.0600000   0.0600000   0.0000000), wk =   0.0028490
        k(  146) = (   0.0500000   0.0500000   0.0000000), wk =   0.0028490
        k(  147) = (   0.0400000   0.0400000   0.0000000), wk =   0.0028490
        k(  148) = (   0.0300000   0.0300000   0.0000000), wk =   0.0028490
        k(  149) = (   0.0200000   0.0200000   0.0000000), wk =   0.0028490
        k(  150) = (   0.0100000   0.0100000   0.0000000), wk =   0.0028490
        k(  151) = (   0.0000000   0.0000000   0.0000000), wk =   0.0028490
        k(  152) = (   0.0000000   0.0000000   0.0100000), wk =   0.0028490
        k(  153) = (   0.0000000   0.0000000   0.0200000), wk =   0.0028490
        k(  154) = (   0.0000000   0.0000000   0.0300000), wk =   0.0028490
        k(  155) = (   0.0000000   0.0000000   0.0400000), wk =   0.0028490
        k(  156) = (   0.0000000   0.0000000   0.0500000), wk =   0.0028490
        k(  157) = (   0.0000000   0.0000000   0.0600000), wk =   0.0028490
        k(  158) = (   0.0000000   0.0000000   0.0700000), wk =   0.0028490
        k(  159) = (   0.0000000   0.0000000   0.0800000), wk =   0.0028490
        k(  160) = (   0.0000000   0.0000000   0.0900000), wk =   0.0028490
        k(  161) = (   0.0000000   0.0000000   0.1000000), wk =   0.0028490
        k(  162) = (   0.0000000   0.0000000   0.1100000), wk =   0.0028490
        k(  163) = (   0.0000000   0.0000000   0.1200000), wk =   0.0028490
        k(  164) = (   0.0000000   0.0000000   0.1300000), wk =   0.0028490
        k(  165) = (   0.0000000   0.0000000   0.1400000), wk =   0.0028490
        k(  166) = (   0.0000000   0.0000000   0.1500000), wk =   0.0028490
        k(  167) = (   0.0000000   0.0000000   0.1600000), wk =   0.0028490
        k(  168) = (   0.0000000   0.0000000   0.1700000), wk =   0.0028490
        k(  169) = (   0.0000000   0.0000000   0.1800000), wk =   0.0028490
        k(  170) = (   0.0000000   0.0000000   0.1900000), wk =   0.0028490
        k(  171) = (   0.0000000   0.0000000   0.2000000), wk =   0.0028490
        k(  172) = (   0.0000000   0.0000000   0.2100000), wk =   0.0028490
        k(  173) = (   0.0000000   0.0000000   0.2200000), wk =   0.0028490
        k(  174) = (   0.0000000   0.0000000   0.2300000), wk =   0.0028490
        k(  175) = (   0.0000000   0.0000000   0.2400000), wk =   0.0028490
        k(  176) = (   0.0000000   0.0000000   0.2500000), wk =   0.0028490
        k(  177) = (   0.0000000   0.0000000   0.2600000), wk =   0.0028490
        k(  178) = (   0.0000000   0.0000000   0.2700000), wk =   0.0028490
        k(  179) = (   0.0000000   0.0000000   0.2800000), wk =   0.0028490
        k(  180) = (   0.0000000   0.0000000   0.2900000), wk =   0.0028490
        k(  181) = (   0.0000000   0.0000000   0.3000000), wk =   0.0028490
        k(  182) = (   0.0000000   0.0000000   0.3100000), wk =   0.0028490
        k(  183) = (   0.0000000   0.0000000   0.3200000), wk =   0.0028490
        k(  184) = (   0.0000000   0.0000000   0.3300000), wk =   0.0028490
        k(  185) = (   0.0000000   0.0000000   0.3400000), wk =   0.0028490
        k(  186) = (   0.0000000   0.0000000   0.3500000), wk =   0.0028490
        k(  187) = (   0.0000000   0.0000000   0.3600000), wk =   0.0028490
        k(  188) = (   0.0000000   0.0000000   0.3700000), wk =   0.0028490
        k(  189) = (   0.0000000   0.0000000   0.3800000), wk =   0.0028490
        k(  190) = (   0.0000000   0.0000000   0.3900000), wk =   0.0028490
        k(  191) = (   0.0000000   0.0000000   0.4000000), wk =   0.0028490
        k(  192) = (   0.0000000   0.0000000   0.4100000), wk =   0.0028490
        k(  193) = (   0.0000000   0.0000000   0.4200000), wk =   0.0028490
        k(  194) = (   0.0000000   0.0000000   0.4300000), wk =   0.0028490
        k(  195) = (   0.0000000   0.0000000   0.4400000), wk =   0.0028490
        k(  196) = (   0.0000000   0.0000000   0.4500000), wk =   0.0028490
        k(  197) = (   0.0000000   0.0000000   0.4600000), wk =   0.0028490
        k(  198) = (   0.0000000   0.0000000   0.4700000), wk =   0.0028490
        k(  199) = (   0.0000000   0.0000000   0.4800000), wk =   0.0028490
        k(  200) = (   0.0000000   0.0000000   0.4900000), wk =   0.0028490
        k(  201) = (   0.0000000   0.0000000   0.5000000), wk =   0.0028490
        k(  202) = (   0.0000000   0.0100000   0.5000000), wk =   0.0028490
        k(  203) = (   0.0000000   0.0200000   0.5000000), wk =   0.0028490
        k(  204) = (   0.0000000   0.0300000   0.5000000), wk =   0.0028490
        k(  205) = (   0.0000000   0.0400000   0.5000000), wk =   0.0028490
        k(  206) = (   0.0000000   0.0500000   0.5000000), wk =   0.0028490
        k(  207) = (   0.0000000   0.0600000   0.5000000), wk =   0.0028490
        k(  208) = (   0.0000000   0.0700000   0.5000000), wk =   0.0028490
        k(  209) = (   0.0000000   0.0800000   0.5000000), wk =   0.0028490
        k(  210) = (   0.0000000   0.0900000   0.5000000), wk =   0.0028490
        k(  211) = (   0.0000000   0.1000000   0.5000000), wk =   0.0028490
        k(  212) = (   0.0000000   0.1100000   0.5000000), wk =   0.0028490
        k(  213) = (   0.0000000   0.1200000   0.5000000), wk =   0.0028490
        k(  214) = (   0.0000000   0.1300000   0.5000000), wk =   0.0028490
        k(  215) = (   0.0000000   0.1400000   0.5000000), wk =   0.0028490
        k(  216) = (   0.0000000   0.1500000   0.5000000), wk =   0.0028490
        k(  217) = (   0.0000000   0.1600000   0.5000000), wk =   0.0028490
        k(  218) = (   0.0000000   0.1700000   0.5000000), wk =   0.0028490
        k(  219) = (   0.0000000   0.1800000   0.5000000), wk =   0.0028490
        k(  220) = (   0.0000000   0.1900000   0.5000000), wk =   0.0028490
        k(  221) = (   0.0000000   0.2000000   0.5000000), wk =   0.0028490
        k(  222) = (   0.0000000   0.2100000   0.5000000), wk =   0.0028490
        k(  223) = (   0.0000000   0.2200000   0.5000000), wk =   0.0028490
        k(  224) = (   0.0000000   0.2300000   0.5000000), wk =   0.0028490
        k(  225) = (   0.0000000   0.2400000   0.5000000), wk =   0.0028490
        k(  226) = (   0.0000000   0.2500000   0.5000000), wk =   0.0028490
        k(  227) = (   0.0000000   0.2600000   0.5000000), wk =   0.0028490
        k(  228) = (   0.0000000   0.2700000   0.5000000), wk =   0.0028490
        k(  229) = (   0.0000000   0.2800000   0.5000000), wk =   0.0028490
        k(  230) = (   0.0000000   0.2900000   0.5000000), wk =   0.0028490
        k(  231) = (   0.0000000   0.3000000   0.5000000), wk =   0.0028490
        k(  232) = (   0.0000000   0.3100000   0.5000000), wk =   0.0028490
        k(  233) = (   0.0000000   0.3200000   0.5000000), wk =   0.0028490
        k(  234) = (   0.0000000   0.3300000   0.5000000), wk =   0.0028490
        k(  235) = (   0.0000000   0.3400000   0.5000000), wk =   0.0028490
        k(  236) = (   0.0000000   0.3500000   0.5000000), wk =   0.0028490
        k(  237) = (   0.0000000   0.3600000   0.5000000), wk =   0.0028490
        k(  238) = (   0.0000000   0.3700000   0.5000000), wk =   0.0028490
        k(  239) = (   0.0000000   0.3800000   0.5000000), wk =   0.0028490
        k(  240) = (   0.0000000   0.3900000   0.5000000), wk =   0.0028490
        k(  241) = (   0.0000000   0.4000000   0.5000000), wk =   0.0028490
        k(  242) = (   0.0000000   0.4100000   0.5000000), wk =   0.0028490
        k(  243) = (   0.0000000   0.4200000   0.5000000), wk =   0.0028490
        k(  244) = (   0.0000000   0.4300000   0.5000000), wk =   0.0028490
        k(  245) = (   0.0000000   0.4400000   0.5000000), wk =   0.0028490
        k(  246) = (   0.0000000   0.4500000   0.5000000), wk =   0.0028490
        k(  247) = (   0.0000000   0.4600000   0.5000000), wk =   0.0028490
        k(  248) = (   0.0000000   0.4700000   0.5000000), wk =   0.0028490
        k(  249) = (   0.0000000   0.4800000   0.5000000), wk =   0.0028490
        k(  250) = (   0.0000000   0.4900000   0.5000000), wk =   0.0028490
        k(  251) = (   0.0000000   0.5000000   0.5000000), wk =   0.0028490
        k(  252) = (   0.0100000   0.5000000   0.5000000), wk =   0.0028490
        k(  253) = (   0.0200000   0.5000000   0.5000000), wk =   0.0028490
        k(  254) = (   0.0300000   0.5000000   0.5000000), wk =   0.0028490
        k(  255) = (   0.0400000   0.5000000   0.5000000), wk =   0.0028490
        k(  256) = (   0.0500000   0.5000000   0.5000000), wk =   0.0028490
        k(  257) = (   0.0600000   0.5000000   0.5000000), wk =   0.0028490
        k(  258) = (   0.0700000   0.5000000   0.5000000), wk =   0.0028490
        k(  259) = (   0.0800000   0.5000000   0.5000000), wk =   0.0028490
        k(  260) = (   0.0900000   0.5000000   0.5000000), wk =   0.0028490
        k(  261) = (   0.1000000   0.5000000   0.5000000), wk =   0.0028490
        k(  262) = (   0.1100000   0.5000000   0.5000000), wk =   0.0028490
        k(  263) = (   0.1200000   0.5000000   0.5000000), wk =   0.0028490
        k(  264) = (   0.1300000   0.5000000   0.5000000), wk =   0.0028490
        k(  265) = (   0.1400000   0.5000000   0.5000000), wk =   0.0028490
        k(  266) = (   0.1500000   0.5000000   0.5000000), wk =   0.0028490
        k(  267) = (   0.1600000   0.5000000   0.5000000), wk =   0.0028490
        k(  268) = (   0.1700000   0.5000000   0.5000000), wk =   0.0028490
        k(  269) = (   0.1800000   0.5000000   0.5000000), wk =   0.0028490
        k(  270) = (   0.1900000   0.5000000   0.5000000), wk =   0.0028490
        k(  271) = (   0.2000000   0.5000000   0.5000000), wk =   0.0028490
        k(  272) = (   0.2100000   0.5000000   0.5000000), wk =   0.0028490
        k(  273) = (   0.2200000   0.5000000   0.5000000), wk =   0.0028490
        k(  274) = (   0.2300000   0.5000000   0.5000000), wk =   0.0028490
        k(  275) = (   0.2400000   0.5000000   0.5000000), wk =   0.0028490
        k(  276) = (   0.2500000   0.5000000   0.5000000), wk =   0.0028490
        k(  277) = (   0.2600000   0.5000000   0.5000000), wk =   0.0028490
        k(  278) = (   0.2700000   0.5000000   0.5000000), wk =   0.0028490
        k(  279) = (   0.2800000   0.5000000   0.5000000), wk =   0.0028490
        k(  280) = (   0.2900000   0.5000000   0.5000000), wk =   0.0028490
        k(  281) = (   0.3000000   0.5000000   0.5000000), wk =   0.0028490
        k(  282) = (   0.3100000   0.5000000   0.5000000), wk =   0.0028490
        k(  283) = (   0.3200000   0.5000000   0.5000000), wk =   0.0028490
        k(  284) = (   0.3300000   0.5000000   0.5000000), wk =   0.0028490
        k(  285) = (   0.3400000   0.5000000   0.5000000), wk =   0.0028490
        k(  286) = (   0.3500000   0.5000000   0.5000000), wk =   0.0028490
        k(  287) = (   0.3600000   0.5000000   0.5000000), wk =   0.0028490
        k(  288) = (   0.3700000   0.5000000   0.5000000), wk =   0.0028490
        k(  289) = (   0.3800000   0.5000000   0.5000000), wk =   0.0028490
        k(  290) = (   0.3900000   0.5000000   0.5000000), wk =   0.0028490
        k(  291) = (   0.4000000   0.5000000   0.5000000), wk =   0.0028490
        k(  292) = (   0.4100000   0.5000000   0.5000000), wk =   0.0028490
        k(  293) = (   0.4200000   0.5000000   0.5000000), wk =   0.0028490
        k(  294) = (   0.4300000   0.5000000   0.5000000), wk =   0.0028490
        k(  295) = (   0.4400000   0.5000000   0.5000000), wk =   0.0028490
        k(  296) = (   0.4500000   0.5000000   0.5000000), wk =   0.0028490
        k(  297) = (   0.4600000   0.5000000   0.5000000), wk =   0.0028490
        k(  298) = (   0.4700000   0.5000000   0.5000000), wk =   0.0028490
        k(  299) = (   0.4800000   0.5000000   0.5000000), wk =   0.0028490
        k(  300) = (   0.4900000   0.5000000   0.5000000), wk =   0.0028490
        k(  301) = (   0.5000000   0.5000000   0.5000000), wk =   0.0028490
        k(  302) = (   0.4900000   0.4900000   0.5000000), wk =   0.0028490
        k(  303) = (   0.4800000   0.4800000   0.5000000), wk =   0.0028490
        k(  304) = (   0.4700000   0.4700000   0.5000000), wk =   0.0028490
        k(  305) = (   0.4600000   0.4600000   0.5000000), wk =   0.0028490
        k(  306) = (   0.4500000   0.4500000   0.5000000), wk =   0.0028490
        k(  307) = (   0.4400000   0.4400000   0.5000000), wk =   0.0028490
        k(  308) = (   0.4300000   0.4300000   0.5000000), wk =   0.0028490
        k(  309) = (   0.4200000   0.4200000   0.5000000), wk =   0.0028490
        k(  310) = (   0.4100000   0.4100000   0.5000000), wk =   0.0028490
        k(  311) = (   0.4000000   0.4000000   0.5000000), wk =   0.0028490
        k(  312) = (   0.3900000   0.3900000   0.5000000), wk =   0.0028490
        k(  313) = (   0.3800000   0.3800000   0.5000000), wk =   0.0028490
        k(  314) = (   0.3700000   0.3700000   0.5000000), wk =   0.0028490
        k(  315) = (   0.3600000   0.3600000   0.5000000), wk =   0.0028490
        k(  316) = (   0.3500000   0.3500000   0.5000000), wk =   0.0028490
        k(  317) = (   0.3400000   0.3400000   0.5000000), wk =   0.0028490
        k(  318) = (   0.3300000   0.3300000   0.5000000), wk =   0.0028490
        k(  319) = (   0.3200000   0.3200000   0.5000000), wk =   0.0028490
        k(  320) = (   0.3100000   0.3100000   0.5000000), wk =   0.0028490
        k(  321) = (   0.3000000   0.3000000   0.5000000), wk =   0.0028490
        k(  322) = (   0.2900000   0.2900000   0.5000000), wk =   0.0028490
        k(  323) = (   0.2800000   0.2800000   0.5000000), wk =   0.0028490
        k(  324) = (   0.2700000   0.2700000   0.5000000), wk =   0.0028490
        k(  325) = (   0.2600000   0.2600000   0.5000000), wk =   0.0028490
        k(  326) = (   0.2500000   0.2500000   0.5000000), wk =   0.0028490
        k(  327) = (   0.2400000   0.2400000   0.5000000), wk =   0.0028490
        k(  328) = (   0.2300000   0.2300000   0.5000000), wk =   0.0028490
        k(  329) = (   0.2200000   0.2200000   0.5000000), wk =   0.0028490
        k(  330) = (   0.2100000   0.2100000   0.5000000), wk =   0.0028490
        k(  331) = (   0.2000000   0.2000000   0.5000000), wk =   0.0028490
        k(  332) = (   0.1900000   0.1900000   0.5000000), wk =   0.0028490
        k(  333) = (   0.1800000   0.1800000   0.5000000), wk =   0.0028490
        k(  334) = (   0.1700000   0.1700000   0.5000000), wk =   0.0028490
        k(  335) = (   0.1600000   0.1600000   0.5000000), wk =   0.0028490
        k(  336) = (   0.1500000   0.1500000   0.5000000), wk =   0.0028490
        k(  337) = (   0.1400000   0.1400000   0.5000000), wk =   0.0028490
        k(  338) = (   0.1300000   0.1300000   0.5000000), wk =   0.0028490
        k(  339) = (   0.1200000   0.1200000   0.5000000), wk =   0.0028490
        k(  340) = (   0.1100000   0.1100000   0.5000000), wk =   0.0028490
        k(  341) = (   0.1000000   0.1000000   0.5000000), wk =   0.0028490
        k(  342) = (   0.0900000   0.0900000   0.5000000), wk =   0.0028490
        k(  343) = (   0.0800000   0.0800000   0.5000000), wk =   0.0028490
        k(  344) = (   0.0700000   0.0700000   0.5000000), wk =   0.0028490
        k(  345) = (   0.0600000   0.0600000   0.5000000), wk =   0.0028490
        k(  346) = (   0.0500000   0.0500000   0.5000000), wk =   0.0028490
        k(  347) = (   0.0400000   0.0400000   0.5000000), wk =   0.0028490
        k(  348) = (   0.0300000   0.0300000   0.5000000), wk =   0.0028490
        k(  349) = (   0.0200000   0.0200000   0.5000000), wk =   0.0028490
        k(  350) = (   0.0100000   0.0100000   0.5000000), wk =   0.0028490
        k(  351) = (   0.0000000   0.0000000   0.5000000), wk =   0.0028490

     Dense  grid:    70151 G-vectors     FFT dimensions: (  45,  45,  64)

     Smooth grid:    13173 G-vectors     FFT dimensions: (  27,  27,  40)

     Dynamical RAM for                 wfc:       0.41 MB

     Dynamical RAM for     wfc (w. buffer):     143.17 MB

     Dynamical RAM for           str. fact:       0.18 MB

     Dynamical RAM for           local pot:       0.00 MB

     Dynamical RAM for          nlocal pot:       0.14 MB

     Dynamical RAM for                qrad:      11.75 MB

     Dynamical RAM for          rho,v,vnew:       2.18 MB

     Dynamical RAM for           G-vectors:       0.34 MB

     Dynamical RAM for          h,s,v(r/c):       1.76 MB

     Dynamical RAM for          <psi|beta>:       0.20 MB

     Dynamical RAM for                 psi:       0.81 MB

     Dynamical RAM for                hpsi:       0.81 MB

     Dynamical RAM for                spsi:       0.81 MB

     Dynamical RAM for      wfcinit/wfcrot:       0.83 MB

     Dynamical RAM for           addusdens:      54.76 MB

     Estimated static dynamical RAM per process >     158.78 MB

     Estimated max dynamical RAM per process >     213.54 MB

     Estimated total dynamical RAM >       2.50 GB

     Check: negative core charge=   -0.000005
     Generating pointlists ...
     new r_m :   0.4083 (alat units)  2.1049 (a.u.) for type    1
     new r_m :   0.4083 (alat units)  2.1049 (a.u.) for type    2
     Message from routine read_rhog:
     some spin components not found
 
 -----------
Spin angles Theta, Phi (degree) =  90.0000  0.0000
 -----------

     The potential is recalculated from file :
     ./work/pwscf.save/charge-density

     Starting wfcs are   44 randomized atomic wfcs +   54 random wfcs

     Band Structure Calculation
     Davidson diagonalization with overlap

     Computing kpt #:     1  of   351
     total cpu time spent up to now is        1.6 secs

     Computing kpt #:     2  of   351
     total cpu time spent up to now is        2.3 secs

     Computing kpt #:     3  of   351
     total cpu time spent up to now is        3.1 secs

     Computing kpt #:     4  of   351
     total cpu time spent up to now is        3.9 secs

     Computing kpt #:     5  of   351
     total cpu time spent up to now is        4.7 secs

     Computing kpt #:     6  of   351
     total cpu time spent up to now is        5.6 secs

     Computing kpt #:     7  of   351
     total cpu time spent up to now is        6.5 secs

     Computing kpt #:     8  of   351
     total cpu time spent up to now is        7.4 secs

     Computing kpt #:     9  of   351
     total cpu time spent up to now is        8.2 secs

     Computing kpt #:    10  of   351
     total cpu time spent up to now is        9.1 secs

     Computing kpt #:    11  of   351
     total cpu time spent up to now is       10.0 secs

     Computing kpt #:    12  of   351
     total cpu time spent up to now is       11.0 secs

     Computing kpt #:    13  of   351
     total cpu time spent up to now is       11.9 secs

     Computing kpt #:    14  of   351
     total cpu time spent up to now is       12.8 secs

     Computing kpt #:    15  of   351
     total cpu time spent up to now is       13.7 secs

     Computing kpt #:    16  of   351
     total cpu time spent up to now is       14.7 secs

     Computing kpt #:    17  of   351
     total cpu time spent up to now is       15.7 secs

     Computing kpt #:    18  of   351
     total cpu time spent up to now is       16.6 secs

     Computing kpt #:    19  of   351
     total cpu time spent up to now is       17.6 secs

     Computing kpt #:    20  of   351
     total cpu time spent up to now is       18.5 secs

     Computing kpt #:    21  of   351
     total cpu time spent up to now is       19.5 secs

     Computing kpt #:    22  of   351
     total cpu time spent up to now is       20.4 secs

     Computing kpt #:    23  of   351
     total cpu time spent up to now is       21.3 secs

     Computing kpt #:    24  of   351
     total cpu time spent up to now is       22.3 secs

     Computing kpt #:    25  of   351
     total cpu time spent up to now is       23.2 secs

     Computing kpt #:    26  of   351
     total cpu time spent up to now is       24.2 secs

     Computing kpt #:    27  of   351
     total cpu time spent up to now is       25.1 secs

     Computing kpt #:    28  of   351
     total cpu time spent up to now is       26.1 secs

     Computing kpt #:    29  of   351
     total cpu time spent up to now is       27.0 secs

     Computing kpt #:    30  of   351
     total cpu time spent up to now is       28.0 secs

     Computing kpt #:    31  of   351
     total cpu time spent up to now is       29.0 secs

     Computing kpt #:    32  of   351
     total cpu time spent up to now is       30.0 secs

     Computing kpt #:    33  of   351
     total cpu time spent up to now is       31.0 secs

     Computing kpt #:    34  of   351
     total cpu time spent up to now is       32.0 secs

     Computing kpt #:    35  of   351
     total cpu time spent up to now is       32.9 secs

     Computing kpt #:    36  of   351
     total cpu time spent up to now is       33.9 secs

     Computing kpt #:    37  of   351
     total cpu time spent up to now is       34.9 secs

     Computing kpt #:    38  of   351
     total cpu time spent up to now is       36.0 secs

     Computing kpt #:    39  of   351
     total cpu time spent up to now is       37.0 secs

     Computing kpt #:    40  of   351
     total cpu time spent up to now is       38.0 secs

     Computing kpt #:    41  of   351
     total cpu time spent up to now is       39.0 secs

     Computing kpt #:    42  of   351
     total cpu time spent up to now is       40.0 secs

     Computing kpt #:    43  of   351
     total cpu time spent up to now is       41.0 secs

     Computing kpt #:    44  of   351
     total cpu time spent up to now is       41.9 secs

     Computing kpt #:    45  of   351
     total cpu time spent up to now is       42.9 secs

     Computing kpt #:    46  of   351
     total cpu time spent up to now is       43.8 secs

     Computing kpt #:    47  of   351
     total cpu time spent up to now is       44.8 secs

     Computing kpt #:    48  of   351
     total cpu time spent up to now is       45.7 secs

     Computing kpt #:    49  of   351
     total cpu time spent up to now is       46.7 secs

     Computing kpt #:    50  of   351
     total cpu time spent up to now is       47.8 secs

     Computing kpt #:    51  of   351
     total cpu time spent up to now is       48.9 secs

     Computing kpt #:    52  of   351
     total cpu time spent up to now is       49.9 secs

     Computing kpt #:    53  of   351
     total cpu time spent up to now is       50.9 secs

     Computing kpt #:    54  of   351
     total cpu time spent up to now is       51.9 secs

     Computing kpt #:    55  of   351
     total cpu time spent up to now is       52.8 secs

     Computing kpt #:    56  of   351
     total cpu time spent up to now is       53.7 secs

     Computing kpt #:    57  of   351
     total cpu time spent up to now is       54.7 secs

     Computing kpt #:    58  of   351
     total cpu time spent up to now is       55.6 secs

     Computing kpt #:    59  of   351
     total cpu time spent up to now is       56.6 secs

     Computing kpt #:    60  of   351
     total cpu time spent up to now is       57.5 secs

     Computing kpt #:    61  of   351
     total cpu time spent up to now is       58.4 secs

     Computing kpt #:    62  of   351
     total cpu time spent up to now is       59.4 secs

     Computing kpt #:    63  of   351
     total cpu time spent up to now is       60.3 secs

     Computing kpt #:    64  of   351
     total cpu time spent up to now is       61.3 secs

     Computing kpt #:    65  of   351
     total cpu time spent up to now is       62.3 secs

     Computing kpt #:    66  of   351
     total cpu time spent up to now is       63.2 secs

     Computing kpt #:    67  of   351
     total cpu time spent up to now is       64.2 secs

     Computing kpt #:    68  of   351
     total cpu time spent up to now is       65.2 secs

     Computing kpt #:    69  of   351
     total cpu time spent up to now is       66.2 secs

     Computing kpt #:    70  of   351
     total cpu time spent up to now is       67.2 secs

     Computing kpt #:    71  of   351
     total cpu time spent up to now is       68.3 secs

     Computing kpt #:    72  of   351
     total cpu time spent up to now is       69.3 secs

     Computing kpt #:    73  of   351
     total cpu time spent up to now is       70.3 secs

     Computing kpt #:    74  of   351
     total cpu time spent up to now is       71.3 secs

     Computing kpt #:    75  of   351
     total cpu time spent up to now is       72.3 secs

     Computing kpt #:    76  of   351
     total cpu time spent up to now is       73.3 secs

     Computing kpt #:    77  of   351
     total cpu time spent up to now is       74.2 secs

     Computing kpt #:    78  of   351
     total cpu time spent up to now is       75.2 secs

     Computing kpt #:    79  of   351
     total cpu time spent up to now is       76.2 secs

     Computing kpt #:    80  of   351
     total cpu time spent up to now is       77.2 secs

     Computing kpt #:    81  of   351
     total cpu time spent up to now is       78.2 secs

     Computing kpt #:    82  of   351
     total cpu time spent up to now is       79.2 secs

     Computing kpt #:    83  of   351
     total cpu time spent up to now is       80.3 secs

     Computing kpt #:    84  of   351
     total cpu time spent up to now is       81.3 secs

     Computing kpt #:    85  of   351
     total cpu time spent up to now is       82.4 secs

     Computing kpt #:    86  of   351
     total cpu time spent up to now is       83.5 secs

     Computing kpt #:    87  of   351
     total cpu time spent up to now is       84.6 secs

     Computing kpt #:    88  of   351
     total cpu time spent up to now is       85.6 secs

     Computing kpt #:    89  of   351
     total cpu time spent up to now is       86.7 secs

     Computing kpt #:    90  of   351
     total cpu time spent up to now is       87.7 secs

     Computing kpt #:    91  of   351
     total cpu time spent up to now is       88.8 secs

     Computing kpt #:    92  of   351
     total cpu time spent up to now is       89.9 secs

     Computing kpt #:    93  of   351
     total cpu time spent up to now is       90.9 secs

     Computing kpt #:    94  of   351
     total cpu time spent up to now is       92.0 secs

     Computing kpt #:    95  of   351
     total cpu time spent up to now is       93.1 secs

     Computing kpt #:    96  of   351
     total cpu time spent up to now is       94.1 secs

     Computing kpt #:    97  of   351
     total cpu time spent up to now is       95.2 secs

     Computing kpt #:    98  of   351
     total cpu time spent up to now is       96.3 secs

     Computing kpt #:    99  of   351
     total cpu time spent up to now is       97.4 secs

     Computing kpt #:   100  of   351
     total cpu time spent up to now is       98.4 secs

     Computing kpt #:   101  of   351
     total cpu time spent up to now is       99.4 secs

     Computing kpt #:   102  of   351
     total cpu time spent up to now is      100.5 secs

     Computing kpt #:   103  of   351
     total cpu time spent up to now is      101.6 secs

     Computing kpt #:   104  of   351
     total cpu time spent up to now is      102.6 secs

     Computing kpt #:   105  of   351
     total cpu time spent up to now is      103.7 secs

     Computing kpt #:   106  of   351
     total cpu time spent up to now is      104.8 secs

     Computing kpt #:   107  of   351
     total cpu time spent up to now is      105.9 secs

     Computing kpt #:   108  of   351
     total cpu time spent up to now is      107.0 secs

     Computing kpt #:   109  of   351
     total cpu time spent up to now is      108.1 secs

     Computing kpt #:   110  of   351
     total cpu time spent up to now is      109.2 secs

     Computing kpt #:   111  of   351
     total cpu time spent up to now is      110.3 secs

     Computing kpt #:   112  of   351
     total cpu time spent up to now is      111.3 secs

     Computing kpt #:   113  of   351
     total cpu time spent up to now is      112.4 secs

     Computing kpt #:   114  of   351
     total cpu time spent up to now is      113.5 secs

     Computing kpt #:   115  of   351
     total cpu time spent up to now is      114.5 secs

     Computing kpt #:   116  of   351
     total cpu time spent up to now is      115.6 secs

     Computing kpt #:   117  of   351
     total cpu time spent up to now is      116.7 secs

     Computing kpt #:   118  of   351
     total cpu time spent up to now is      117.9 secs

     Computing kpt #:   119  of   351
     total cpu time spent up to now is      119.0 secs

     Computing kpt #:   120  of   351
     total cpu time spent up to now is      120.0 secs

     Computing kpt #:   121  of   351
     total cpu time spent up to now is      121.0 secs

     Computing kpt #:   122  of   351
     total cpu time spent up to now is      122.0 secs

     Computing kpt #:   123  of   351
     total cpu time spent up to now is      123.0 secs

     Computing kpt #:   124  of   351
     total cpu time spent up to now is      124.0 secs

     Computing kpt #:   125  of   351
     total cpu time spent up to now is      125.0 secs

     Computing kpt #:   126  of   351
     total cpu time spent up to now is      125.9 secs

     Computing kpt #:   127  of   351
     total cpu time spent up to now is      126.9 secs

     Computing kpt #:   128  of   351
     total cpu time spent up to now is      128.0 secs

     Computing kpt #:   129  of   351
     total cpu time spent up to now is      129.0 secs

     Computing kpt #:   130  of   351
     total cpu time spent up to now is      130.0 secs

     Computing kpt #:   131  of   351
     total cpu time spent up to now is      130.9 secs

     Computing kpt #:   132  of   351
     total cpu time spent up to now is      131.9 secs

     Computing kpt #:   133  of   351
     total cpu time spent up to now is      132.9 secs

     Computing kpt #:   134  of   351
     total cpu time spent up to now is      133.9 secs

     Computing kpt #:   135  of   351
     total cpu time spent up to now is      134.8 secs

     Computing kpt #:   136  of   351
     total cpu time spent up to now is      135.8 secs

     Computing kpt #:   137  of   351
     total cpu time spent up to now is      136.8 secs

     Computing kpt #:   138  of   351
     total cpu time spent up to now is      137.8 secs

     Computing kpt #:   139  of   351
     total cpu time spent up to now is      138.7 secs

     Computing kpt #:   140  of   351
     total cpu time spent up to now is      139.7 secs

     Computing kpt #:   141  of   351
     total cpu time spent up to now is      140.6 secs

     Computing kpt #:   142  of   351
     total cpu time spent up to now is      141.5 secs

     Computing kpt #:   143  of   351
     total cpu time spent up to now is      142.5 secs

     Computing kpt #:   144  of   351
     total cpu time spent up to now is      143.4 secs

     Computing kpt #:   145  of   351
     total cpu time spent up to now is      144.3 secs

     Computing kpt #:   146  of   351
     total cpu time spent up to now is      145.1 secs

     Computing kpt #:   147  of   351
     total cpu time spent up to now is      146.0 secs

     Computing kpt #:   148  of   351
     total cpu time spent up to now is      146.8 secs

     Computing kpt #:   149  of   351
     total cpu time spent up to now is      147.6 secs

     Computing kpt #:   150  of   351
     total cpu time spent up to now is      148.3 secs

     Computing kpt #:   151  of   351
     total cpu time spent up to now is      149.1 secs

     Computing kpt #:   152  of   351
     total cpu time spent up to now is      150.0 secs

     Computing kpt #:   153  of   351
     total cpu time spent up to now is      150.7 secs

     Computing kpt #:   154  of   351
     total cpu time spent up to now is      151.6 secs

     Computing kpt #:   155  of   351
[...]
    29.2915  29.4839  29.5728  29.8152  30.2722  30.3652  31.0529  31.3509
    35.5537  35.9057  37.1739  37.3110  39.4787  39.5004  39.7992  39.9982
    41.3708  41.4907  42.1050  42.4366  45.4626  46.0525  46.7095  46.9162
    47.2066  47.3624  47.4827  47.5692  52.0610  52.2916  52.6089  52.7257
    52.8439  52.9036  52.9882  53.1170  56.0402  56.6829  56.7324  56.7923
    62.3542  62.3891  62.6714  62.6951  62.7951  63.0175  63.3104  63.4649
    63.9553  64.0299  64.3244  64.5856  68.9462  69.4844  71.7422  72.1956
    72.4997  72.6857  72.8896  73.1011  75.4945  75.7027  75.9019  75.9947
    79.2344  79.7395

          k = 0.1600 0.1600 0.3610 (  1660 PWs)   bands (ev):

   -71.9611 -68.3760 -38.6926 -38.0743 -37.5097 -34.8302 -34.3133 -33.9786
    10.5354  10.6730  11.4833  11.7675  11.9479  12.2466  13.0962  13.3327
    13.5783  13.9492  14.3869  14.5865  14.6560  14.7687  15.1560  15.1959
    15.5032  16.5946  16.7847  17.0720  17.4423  17.6193  18.6697  18.9752
    29.4899  29.6980  29.7807  30.0485  30.4866  30.6053  31.2836  31.5737
    35.4046  35.7800  37.2053  37.3493  39.1022  39.4415  39.9444  40.4248
    41.1898  41.2975  42.1546  42.5299  45.1459  45.7316  46.4479  46.5968
    47.2589  47.4963  47.5979  47.7350  52.0265  52.3412  52.5121  52.5517
    52.7047  52.7162  52.8230  53.2381  56.2764  56.7622  56.8447  56.9876
    61.9517  62.0060  62.1697  62.3070  62.4924  63.0169  63.2472  63.2667
    63.7909  64.1898  64.5203  64.6656  68.8760  69.4213  71.3912  71.8446
    72.6795  72.9317  73.1345  73.3076  75.1517  75.3744  76.0199  76.1056
    79.3612  79.8761

          k = 0.1500 0.1500 0.3610 (  1664 PWs)   bands (ev):

   -71.9615 -68.3765 -38.6921 -38.0723 -37.5086 -34.8294 -34.3108 -33.9775
    10.3997  10.5263  11.4627  11.7558  11.8773  12.1687  13.1242  13.3550
    13.6001  13.9851  14.4138  14.6190  14.6660  14.7984  15.1637  15.2269
    15.5479  16.5217  16.7041  16.9413  17.4495  17.6214  18.5791  18.8912
    29.6976  29.9163  29.9927  30.2891  30.7033  30.8479  31.5088  31.7903
    35.2666  35.6644  37.2392  37.3887  38.7310  39.0902  40.3465  40.7767
    41.0379  41.1332  42.1055  42.5216  44.8510  45.4266  46.3058  46.3869
    47.3158  47.5648  47.7669  47.8984  51.9830  52.2551  52.2998  52.3693
    52.4575  52.6569  52.9363  53.4463  56.5230  56.8205  56.8884  57.2444
    61.3369  61.5179  61.7119  61.7974  62.2826  62.9608  63.0764  63.2544
    63.7783  64.0683  64.8469  65.0544  68.8090  69.3674  71.0133  71.4625
    72.7900  73.1206  73.4089  73.6497  74.8201  75.0544  76.1350  76.2133
    79.4641  79.9870

          k = 0.1400 0.1400 0.3610 (  1664 PWs)   bands (ev):

   -71.9619 -68.3770 -38.6916 -38.0703 -37.5075 -34.8286 -34.3084 -33.9763
    10.2695  10.3864  11.4410  11.7420  11.8114  12.0932  13.1535  13.3786
    13.6259  14.0146  14.4452  14.6507  14.6722  14.8269  15.1617  15.2601
    15.6107  16.4530  16.6178  16.8232  17.4562  17.6178  18.4888  18.8152
    29.9149  30.1392  30.2095  30.5341  30.9223  31.0918  31.7280  32.0000
    35.1396  35.5591  37.2749  37.4281  38.3666  38.7447  40.6206  40.7956
    40.9577  41.2488  41.9764  42.4151  44.5926  45.1523  46.2794  46.3011
    47.3800  47.6278  47.9245  48.0365  51.9331  52.0421  52.1569  52.1905
    52.2667  52.6115  53.1472  53.6842  56.7570  56.8653  56.9200  57.5044
    60.6619  60.8936  61.3287  61.4269  62.0844  62.7398  62.8799  63.1608
    63.8429  64.0695  65.2358  65.4627  68.7451  69.3220  70.6203  71.0641
    72.9031  73.2336  73.7588  74.0077  74.5054  74.7504  76.2440  76.3163
    79.5372  80.0699

          k = 0.1300 0.1300 0.3610 (  1664 PWs)   bands (ev):

   -71.9623 -68.3774 -38.6911 -38.0685 -37.5064 -34.8278 -34.3061 -33.9752
    10.1457  10.2539  11.4184  11.7179  11.7587  12.0212  13.1832  13.4043
    13.6551  14.0382  14.4812  14.6761  14.6821  14.8534  15.1598  15.2859
    15.6854  16.3887  16.5228  16.7227  17.4620  17.6077  18.3989  18.7481
    30.1414  30.3668  30.4310  30.7810  31.1437  31.3361  31.9411  32.2025
    35.0237  35.4640  37.3103  37.4646  38.0115  38.4062  40.5601  40.6734
    41.0510  41.4030  41.8615  42.2518  44.4045  44.9426  46.3206  46.3431
    47.4520  47.6965  48.0515  48.1397  51.7940  51.8850  51.9428  52.0911
    52.1958  52.5699  53.3939  53.9415  56.8520  56.8892  57.0609  57.7484
    60.0006  60.2619  60.9838  61.0995  61.8967  62.4621  62.6898  62.9363
    63.9311  64.1692  65.6350  65.8783  68.6830  69.2833  70.2238  70.6608
    73.0302  73.3407  74.1138  74.2104  74.3631  74.4670  76.3469  76.4145
    79.5780  80.1202

          k = 0.1200 0.1200 0.3610 (  1660 PWs)   bands (ev):

   -71.9627 -68.3778 -38.6906 -38.0666 -37.5053 -34.8271 -34.3038 -33.9741
    10.0289  10.1296  11.3951  11.6695  11.7338  11.9532  13.2129  13.4327
    13.6869  14.0570  14.5202  14.6810  14.7110  14.8782  15.1589  15.3052
    15.7643  16.3283  16.4208  16.6420  17.4663  17.5910  18.3097  18.6906
    30.3768  30.5987  30.6575  31.0277  31.3673  31.5795  32.1482  32.3976
    34.9186  35.3788  37.3385  37.4841  37.6829  38.0772  40.4026  40.5145
    41.0340  41.3394  41.8251  42.1392  44.3351  44.8440  46.4139  46.4647
    47.5318  47.7721  48.1399  48.2024  51.5509  51.6981  51.8492  52.0742
    52.1777  52.5321  53.6639  54.2151  56.8551  56.8712  57.2553  57.9293
    59.3932  59.6989  60.6657  60.7969  61.7201  62.1666  62.5105  62.6546
    64.0214  64.2733  66.0261  66.2876  68.6210  69.2481  69.8412  70.2678
    73.1718  73.4475  73.9549  74.2084  74.4593  74.7005  76.4440  76.5078
    79.5869  80.0094

          k = 0.1100 0.1100 0.3610 (  1660 PWs)   bands (ev):

   -71.9630 -68.3782 -38.6902 -38.0650 -37.5044 -34.8264 -34.3018 -33.9731
     9.9196  10.0138  11.3717  11.6145  11.7193  11.8898  13.2419  13.4641
    13.7204  14.0729  14.5592  14.6866  14.7393  14.9024  15.1589  15.3187
    15.8378  16.2668  16.3244  16.5791  17.4675  17.5690  18.2214  18.6430
    30.6198  30.8342  30.8884  31.2721  31.5929  31.8201  32.3497  32.5853
    34.8241  35.3034  37.2463  37.4081  37.5566  37.7710  40.2358  40.3562
    40.7747  41.1643  41.7190  42.1096  44.4232  44.8966  46.5499  46.6183
    47.6192  47.8550  48.1873  48.2242  51.3134  51.4608  51.8198  52.1099
    52.2131  52.5009  53.9526  54.5025  56.8263  56.8404  57.3314  57.9189
    58.9263  59.3376  60.3709  60.5141  61.5548  61.8707  62.3159  62.3811
    64.0925  64.3536  66.3828  66.6677  68.5575  69.2106  69.5033  69.9111
    73.3077  73.5079  73.7919  74.0005  74.7832  75.0199  76.5354  76.5963
    79.5660  79.8540

          k = 0.1000 0.1000 0.3610 (  1668 PWs)   bands (ev):

   -71.9634 -68.3786 -38.6899 -38.0636 -37.5036 -34.8259 -34.3001 -33.9723
     9.8184   9.9069  11.3484  11.5617  11.7067  11.8312  13.2699  13.4985
    13.7548  14.0875  14.5937  14.6943  14.7674  14.9275  15.1598  15.3273
    15.8901  16.1882  16.2653  16.5314  17.4617  17.5461  18.1345  18.6049
    30.8688  31.0722  31.1228  31.5116  31.8199  32.0555  32.5469  32.7660
    34.7397  35.2370  36.9347  37.3340  37.4986  37.6210  40.0532  40.2042
    40.4429  40.8754  41.5634  42.0243  44.6653  45.1044  46.7059  46.7848
    47.7141  47.9449  48.1960  48.2094  51.0817  51.2299  51.7905  52.1836
    52.3054  52.4883  54.2569  54.8008  56.7709  56.8033  57.1329  57.5874
    58.7490  59.3077  60.0968  60.2466  61.4010  61.5862  62.0302  62.2089
    64.1363  64.4029  66.6574  66.9755  68.4921  69.1550  69.2734  69.6369
    73.2900  73.5017  73.7793  73.9612  75.0820  75.3147  76.6211  76.6796
    79.5155  79.6694

          k = 0.0900 0.0900 0.3610 (  1664 PWs)   bands (ev):

   -71.9637 -68.3790 -38.6895 -38.0621 -37.5028 -34.8253 -34.2982 -33.9714
     9.7257   9.8094  11.3257  11.5129  11.6947  11.7779  13.2963  13.5356
    13.7888  14.1027  14.6194  14.7042  14.7971  14.9553  15.1612  15.3321
    15.8930  16.1100  16.2537  16.4974  17.4424  17.5301  18.0493  18.5757
    31.1215  31.3121  31.3583  31.7443  32.0480  32.2834  32.7415  32.9409
    34.6650  35.1792  36.6068  37.0680  37.4979  37.6249  39.8077  40.0571
    40.1539  40.5371  41.3609  41.8614  45.0227  45.4332  46.8670  46.9515
    47.8162  48.0406  48.1660  48.1738  50.8560  51.0056  51.7567  52.2505
    52.4474  52.5338  54.5730  55.1057  56.6689  56.7060  56.7546  57.0570
    58.8471  59.4844  59.8413  59.9906  61.2534  61.3288  61.7345  62.0677
    64.1511  64.4204  66.7791  67.1408  68.4258  69.1041  69.2028  69.5168
    73.1184  73.4052  73.9144  74.1230  75.3503  75.5801  76.7010  76.7578
    79.3857  79.4788

          k = 0.0800 0.0800 0.3610 (  1668 PWs)   bands (ev):

   -71.9639 -68.3793 -38.6893 -38.0609 -37.5021 -34.8249 -34.2967 -33.9707
     9.6419   9.7214  11.3041  11.4685  11.6829  11.7303  13.3207  13.5747
    13.8211  14.1200  14.6354  14.7133  14.8295  14.9875  15.1627  15.3343
    15.8347  16.0471  16.2860  16.4756  17.4085  17.5237  17.9662  18.5541
    31.3742  31.5531  31.5911  31.9671  32.2763  32.5001  32.9359  33.1116
    34.5989  35.1289  36.2833  36.7699  37.5206  37.6309  39.4671  39.9013
    39.9644  40.2054  41.1272  41.6505  45.4542  45.8413  47.0234  47.1100
    47.9250  48.0957  48.1196  48.1594  50.6364  50.7880  51.7172  52.2608
    52.6257  52.6781  54.8950  55.4084  56.1053  56.4655  56.6280  56.6972
    59.0647  59.5793  59.6795  59.8119  61.0641  61.1558  61.4533  61.9417
    64.1380  64.4076  66.7055  67.1075  68.3587  69.1028  69.2945  69.6083
    72.9384  73.2489  74.1561  74.3533  75.5829  75.8109  76.7750  76.8302
    79.0676  79.3636

          k = 0.0700 0.0700 0.3610 (  1676 PWs)   bands (ev):

   -71.9642 -68.3796 -38.6892 -38.0598 -37.5016 -34.8246 -34.2954 -33.9702
     9.5672   9.6432  11.2839  11.4289  11.6691  11.6909  13.3430  13.6149
    13.8505  14.1407  14.6445  14.7178  14.8632  15.0258  15.1642  15.3359
    15.7439  15.9878  16.3441  16.4649  17.3663  17.5229  17.8859  18.5388
    31.6222  31.7931  31.8173  32.1781  32.5043  32.7024  33.1323  33.2803
    34.5403  35.0846  35.9675  36.4741  37.5392  37.6217  39.0901  39.6882
    39.8318  39.9540  40.8830  41.4200  45.9307  46.2972  47.1687  47.2550
    48.0199  48.0424  48.0672  48.2621  50.4231  50.5773  51.6711  52.2332
    52.8339  52.8825  55.2017  55.4873  55.7114  55.8999  56.5524  56.6344
    59.2832  59.3674  59.4775  60.0427  60.8660  61.0435  61.1960  61.8303
    64.0998  64.3674  66.4810  66.9067  68.2898  69.0699  69.5873  69.8897
    72.7748  73.0979  74.4429  74.6236  75.7735  76.0009  76.8424  76.8961
    78.6592  79.0570

          k = 0.0600 0.0600 0.3610 (  1672 PWs)   bands (ev):

   -71.9644 -68.3798 -38.6889 -38.0587 -37.5010 -34.8242 -34.2940 -33.9696
     9.5020   9.5750  11.2656  11.3942  11.6437  11.6694  13.3627  13.6550
    13.8761  14.1650  14.6498  14.7163  14.8964  15.0705  15.1655  15.3381
    15.6439  15.9264  16.4071  16.4665  17.3214  17.5241  17.8092  18.5283
    31.8586  32.0131  32.0475  32.3757  32.7315  32.8877  33.3318  33.4492
    34.4878  35.0441  35.6625  36.1856  37.5443  37.5887  38.7219  39.4123
    39.7265  39.8091  40.6444  41.1897  46.4331  46.7794  47.2991  47.3833
    47.9478  47.9952  48.1663  48.3788  50.2164  50.3737  51.6158  52.1871
    53.0620  53.1089  54.8838  55.2242  55.5880  56.0246  56.4899  56.5722
    59.1022  59.1748  59.6199  60.3089  60.7029  60.9532  60.9746  61.7338
    64.0408  64.3043  66.1820  66.6183  68.2214  69.0275  69.9876  70.2859
    72.6332  72.9649  74.7610  74.9269  75.9130  76.1413  76.9017  76.9540
    78.2083  78.5659

          k = 0.0500 0.0500 0.3610 (  1680 PWs)   bands (ev):

   -71.9646 -68.3800 -38.6888 -38.0580 -37.5006 -34.8239 -34.2932 -33.9692
     9.4465   9.5171  11.2495  11.3647  11.6139  11.6591  13.3796  13.6933
    13.8976  14.1922  14.6530  14.7098  14.9281  15.1185  15.1688  15.3416
    15.5439  15.8633  16.4442  16.4999  17.2776  17.5260  17.7375  18.5215
    32.0744  32.1965  32.2894  32.5596  32.9569  33.0543  33.5326  33.6186
    34.4392  34.9999  35.3758  35.9072  37.5213  37.5238  38.3929  39.1503
    39.6408  39.7114  40.4223  40.9731  46.9472  47.2690  47.4144  47.4939
    47.8749  47.9300  48.2946  48.5022  50.0166  50.1775  51.5456  52.1242
    53.2953  53.3378  54.3227  54.6827  55.8775  56.2237  56.4961  56.5170
    58.8658  58.9124  59.8748  60.5208  60.5888  60.7814  60.9198  61.6525
    63.9666  64.2236  65.8638  66.3035  68.1569  68.9835  70.4373  70.7366
    72.5171  72.8538  75.1046  75.2580  75.9839  76.2151  76.9489  76.9997
    77.7679  78.0883

          k = 0.0400 0.0400 0.3610 (  1680 PWs)   bands (ev):

   -71.9648 -68.3802 -38.6886 -38.0573 -37.5002 -34.8236 -34.2923 -33.9687
     9.4009   9.4695  11.2359  11.3404  11.5884  11.6514  13.3937  13.7280
    13.9152  14.2200  14.6549  14.7005  14.9594  15.1506  15.1911  15.3464
    15.4484  15.7997  16.4546  16.5586  17.2377  17.5278  17.6723  18.5172
    32.2586  32.3470  32.5310  32.7294  33.1787  33.2011  33.7294  33.7862
    34.3936  34.9203  35.1413  35.6427  37.4237  37.4447  38.1414  38.9397
    39.5725  39.6381  40.2260  40.7808  47.4515  47.5067  47.5787  47.7684
    47.8145  47.8722  48.4288  48.6311  49.8244  49.9893  51.4507  52.0375
    53.5118  53.5487  53.8185  54.1804  56.1491  56.2496  56.4844  56.6653
    58.6295  58.6552  60.1125  60.4758  60.5914  60.6841  60.9987  61.5874
    63.8848  64.1331  65.5607  66.0005  68.0994  68.9422  70.9005  71.2003
    72.4323  72.7676  75.4681  75.6097  75.9554  76.1896  76.9742  77.0231
    77.4136  77.6945

          k = 0.0300 0.0300 0.3610 (  1682 PWs)   bands (ev):

   -71.9649 -68.3803 -38.6885 -38.0568 -37.4999 -34.8235 -34.2916 -33.9684
     9.3652   9.4324  11.2251  11.3214  11.5682  11.6455  13.4048  13.7572
    13.9295  14.2456  14.6559  14.6909  14.9921  15.1556  15.2394  15.3507
    15.3624  15.7377  16.4613  16.6142  17.2040  17.5292  17.6162  18.5146
    32.4003  32.4658  32.7657  32.8808  33.3256  33.3918  33.9123  33.9447
    34.3497  34.7338  35.0348  35.3983  37.2974  37.2999  37.9961  38.7902
    39.5208  39.5838  40.0627  40.6211  47.5697  47.6366  47.7650  47.8222
    47.9636  48.2387  48.5671  48.7638  49.6412  49.8106  51.3182  51.9164
    53.3415  53.6666  53.7587  53.8206  56.2145  56.3075  56.5487  56.8760
    58.4003  58.4194  60.3156  60.4134  60.4916  60.6631  61.1717  61.5387
    63.8042  64.0420  65.2968  65.7352  68.0518  68.9065  71.3446  71.6309
    72.3954  72.7108  75.7459  75.8614  75.9791  76.0573  76.9555  77.0111
    77.2360  77.4556

          k = 0.0200 0.0200 0.3610 (  1670 PWs)   bands (ev):

   -71.9649 -68.3804 -38.6883 -38.0562 -37.4995 -34.8232 -34.2909 -33.9680
     9.3397   9.4058  11.2172  11.3078  11.5538  11.6412  13.4128  13.7791
    13.9404  14.2661  14.6562  14.6832  15.0285  15.1552  15.2595  15.3129
    15.3570  15.6805  16.4668  16.6588  17.1783  17.5297  17.5725  18.5133
    32.4937  32.5554  32.9820  33.0042  33.4227  33.5854  34.0663  34.0811
    34.3085  34.5115  34.9980  35.1871  37.1293  37.1701  37.9326  38.6964
    39.4852  39.5468  39.9392  40.5010  47.6178  47.6604  47.7519  47.7902
    48.4120  48.6520  48.7065  48.8967  49.4708  49.6451  51.1435  51.7596
    53.0182  53.4155  53.9045  53.9205  56.1804  56.3210  56.7289  57.0590
    58.1965  58.2177  60.3732  60.4040  60.4825  60.6376  61.3340  61.5064
    63.7353  63.9623  65.0914  65.5282  68.0162  68.8791  71.7251  71.9368
    72.4611  72.6913  75.4976  75.7383  76.2554  76.3901  76.9086  76.9934
    77.2034  77.3628

          k = 0.0100 0.0100 0.3610 (  1666 PWs)   bands (ev):

   -71.9649 -68.3804 -38.6882 -38.0559 -37.4993 -34.8230 -34.2906 -33.9678
     9.3244   9.3898  11.2124  11.2996  11.5451  11.6386  13.4177  13.7926
    13.9476  14.2792  14.6561  14.6787  15.0698  15.1508  15.2046  15.3439
    15.3611  15.6355  16.4704  16.6880  17.1623  17.5278  17.5463  18.5126
    32.5445  32.6120  33.0863  33.1522  33.4855  33.7352  34.1721  34.1769
    34.2729  34.3309  34.9803  35.0332  36.9984  37.0742  37.9084  38.6465
    39.4647  39.5257  39.8615  40.4264  47.6426  47.6544  47.7632  47.7738
    48.7564  48.8304  48.9599  49.0172  49.3257  49.5053  50.9635  51.6046
    52.8216  53.2343  54.0084  54.0172  56.1581  56.3107  56.8822  57.1899
    58.0466  58.0700  60.3518  60.3604  60.5788  60.6197  61.4441  61.4886
    63.6885  63.9069  64.9606  65.3961  67.9941  68.8619  71.9792  72.0461
    72.6393  72.7125  75.2512  75.4805  76.6454  76.7559  76.8888  76.9872
    77.2124  77.3331

          k = 0.0000 0.0000 0.3610 (  1666 PWs)   bands (ev):

   -71.9650 -68.3805 -38.6881 -38.0558 -37.4993 -34.8230 -34.2905 -33.9678
     9.3192   9.3845  11.2108  11.2969  11.5422  11.6377  13.4193  13.7971
    13.9502  14.2836  14.6559  14.6772  15.1037  15.1344  15.1779  15.3569
    15.3660  15.6170  16.4717  16.6982  17.1568  17.5245  17.5399  18.5124
    32.5606  32.6312  33.1153  33.2219  33.5076  33.7959  34.2116  34.2123
    34.2553  34.2561  34.9743  34.9746  36.9498  37.0384  37.9022  38.6310
    39.4581  39.5189  39.8348  40.4010  47.6491  47.6500  47.7696  47.7697
    48.8937  48.8938  49.0774  49.0775  49.2558  49.4389  50.8794  51.5355
    52.7573  53.1753  54.0451  54.0512  56.1504  56.3060  56.9426  57.2402
    57.9883  58.0129  60.3448  60.3454  60.6095  60.6165  61.4815  61.4846
    63.6719  63.8869  64.9156  65.3506  67.9867  68.8560  72.0639  72.0644
    72.7349  72.7349  75.1489  75.3718  76.8529  76.9480  76.9534  77.0093
    77.1675  77.3287

     Writing all to output data dir ./work/pwscf.save/
 
     init_run     :      0.30s CPU      0.39s WALL (       1 calls)
     electrons    :    229.53s CPU    343.65s WALL (       1 calls)

     Called by init_run:
     wfcinit      :      0.00s CPU      0.00s WALL (       1 calls)
     wfcinit:atom :      0.02s CPU      0.02s WALL (     351 calls)
     wfcinit:wfcr :      6.05s CPU     11.96s WALL (     351 calls)
     potinit      :      0.01s CPU      0.01s WALL (       1 calls)
     hinit0       :      0.09s CPU      0.12s WALL (       1 calls)

     Called by electrons:
     c_bands      :    229.52s CPU    343.65s WALL (       1 calls)
     v_of_rho     :      0.01s CPU      0.01s WALL (       1 calls)
     v_h          :      0.00s CPU      0.00s WALL (       1 calls)
     v_xc         :      0.00s CPU      0.01s WALL (       1 calls)
     newd         :      0.18s CPU      0.23s WALL (       1 calls)

     Called by c_bands:
     init_us_2    :      0.03s CPU      0.03s WALL (     351 calls)
     init_us_2:cp :      0.03s CPU      0.03s WALL (     351 calls)
     cegterg      :    222.90s CPU    331.07s WALL (     728 calls)

     Called by sum_band:

     Called by *egterg:
     cdiaghg      :     96.16s CPU     97.06s WALL (   12167 calls)
     cegterg:over :     14.87s CPU     19.63s WALL (   11816 calls)
     cegterg:upda :      6.30s CPU      6.50s WALL (   11816 calls)
     cegterg:last :     16.88s CPU     17.02s WALL (    6062 calls)
     h_psi        :     83.06s CPU    189.78s WALL (   12895 calls)
     s_psi        :      4.43s CPU      4.79s WALL (   12895 calls)
     g_psi        :      0.16s CPU      0.17s WALL (   11816 calls)

     Called by h_psi:
     h_psi:calbec :      4.41s CPU      7.62s WALL (   12895 calls)
     vloc_psi     :     72.69s CPU    175.44s WALL (   12895 calls)
     add_vuspsi   :      5.48s CPU      6.19s WALL (   12895 calls)

     General routines
     calbec       :      4.40s CPU      7.60s WALL (   12895 calls)
     fft          :      0.00s CPU      0.01s WALL (      31 calls)
     ffts         :      0.00s CPU      0.00s WALL (       4 calls)
     fftw         :     67.53s CPU    165.74s WALL ( 2511200 calls)
     interpolate  :      0.00s CPU      0.00s WALL (       4 calls)
 
     Parallel routines
 
     PWSCF        :   3m52.06s CPU   6m 7.04s WALL

 
   This run was terminated on:  16:50: 9  25Aug2023            

=------------------------------------------------------------------------------=
   JOB DONE.
=------------------------------------------------------------------------------=
