
     Program PWSCF v.7.0 starts on 10May2024 at 20:37:31 

     This program is part of the open-source Quantum ESPRESSO suite
     for quantum simulation of materials; please cite
         "P. Giannozzi et al., J. Phys.:Condens. Matter 21 395502 (2009);
         "P. Giannozzi et al., J. Phys.:Condens. Matter 29 465901 (2017);
         "P. Giannozzi et al., J. Chem. Phys. 152 154105 (2020);
          URL http://www.quantum-espresso.org", 
     in publications or presentations arising from this work. More details at
     http://www.quantum-espresso.org/quote

     Parallel version (MPI), running on    22 processors

     MPI processes distributed on     1 nodes
     R & G space division:  proc/nbgrp/npool/nimage =      22
     182052 MiB available memory on the printing compute node when the environment starts
 
     Waiting for input...
     Reading input from standard input

     Current dimensions of program PWSCF are:
     Max number of different atomic species (ntypx) = 10
     Max number of k-points (npk) =  40000
     Max angular momentum in pseudopotentials (lmaxx) =  4
     file Pt.rel-pbe-n-rrkjus_psl.0.1.UPF: wavefunction(s)  5D renormalized

     Fixed quantization axis for GGA:     0.000000    0.000000    1.000000

     Subspace diagonalization in iterative solution of the eigenvalue problem:
     a serial algorithm will be used

 
     Parallelization info
     --------------------
     sticks:   dense  smooth     PW     G-vecs:    dense   smooth      PW
     Min          74      24      8                 3184      596     102
     Max          75      25      9                 3189      601     104
     Sum        1649     545    177                70151    13173    2261
 
     Using Slab Decomposition
 


     bravais-lattice index     =            6
     lattice parameter (alat)  =       5.1554  a.u.
     unit-cell volume          =     189.8042 (a.u.)^3
     number of atoms/cell      =            2
     number of atomic types    =            2
     number of electrons       =        26.00
     number of Kohn-Sham states=           98
     kinetic-energy cutoff     =      64.0000  Ry
     charge density cutoff     =     782.0000  Ry
     Exchange-correlation= PBE
                           (   1   4   3   4   0   0   0)
     Noncollinear calculation with spin-orbit


     celldm(1)=   5.155443  celldm(2)=   0.000000  celldm(3)=   1.385185
     celldm(4)=   0.000000  celldm(5)=   0.000000  celldm(6)=   0.000000

     crystal axes: (cart. coord. in units of alat)
               a(1) = (   1.000000   0.000000   0.000000 )  
               a(2) = (   0.000000   1.000000   0.000000 )  
               a(3) = (   0.000000   0.000000   1.385185 )  

     reciprocal axes: (cart. coord. in units 2 pi/alat)
               b(1) = (  1.000000  0.000000  0.000000 )  
               b(2) = (  0.000000  1.000000  0.000000 )  
               b(3) = (  0.000000  0.000000  0.721925 )  


     PseudoPot. # 1 for Fe read from file:
     /home2/koretsune/PWSCF/pseudo_psl031/Fe.rel-pbe-spn-rrkjus_psl.0.2.1.UPF
     MD5 check sum: e4688d448a4fb973b820eb5309e921a0
     Pseudo is Ultrasoft + core correction, Zval = 16.0
     Generated using "atomic" code by A. Dal Corso  v.5.0.99 svn rev. 10869
     Using radial grid of 1191 points, 10 beta functions with: 
                l(1) =   0
                l(2) =   0
                l(3) =   1
                l(4) =   1
                l(5) =   1
                l(6) =   1
                l(7) =   2
                l(8) =   2
                l(9) =   2
               l(10) =   2
     Q(r) pseudized with 0 coefficients 


     PseudoPot. # 2 for Pt read from file:
     /home2/koretsune/PWSCF/pseudo_psl031/Pt.rel-pbe-n-rrkjus_psl.0.1.UPF
     MD5 check sum: 75c9b7c8bba3558fb64ef7de01c2f511
     Pseudo is Ultrasoft + core correction, Zval = 10.0
     Generated using "atomic" code by A. Dal Corso  v.5.0.99 svn rev. 10869
     Using radial grid of 1277 points, 10 beta functions with: 
                l(1) =   0
                l(2) =   0
                l(3) =   1
                l(4) =   1
                l(5) =   1
                l(6) =   1
                l(7) =   2
                l(8) =   2
                l(9) =   2
               l(10) =   2
     Q(r) pseudized with 0 coefficients 


     atomic species   valence    mass     pseudopotential
        Fe            16.00    55.84500     Fe( 1.00)
        Pt            10.00   195.08400     Pt( 1.00)

     16 Sym. Ops., with inversion, found


                                    s                        frac. trans.

      isym =  1     identity                                     

 Time Reversal            0
 cryst.   s( 1) = (     1          0          0      )
                  (     0          1          0      )
                  (     0          0          1      )

 cart.    s( 1) = (  1.0000000  0.0000000  0.0000000 )
                  (  0.0000000  1.0000000  0.0000000 )
                  (  0.0000000  0.0000000  1.0000000 )


      isym =  2     180 deg rotation - cart. axis [0,0,1]        

 Time Reversal            0
 cryst.   s( 2) = (    -1          0          0      )
                  (     0         -1          0      )
                  (     0          0          1      )

 cart.    s( 2) = ( -1.0000000  0.0000000  0.0000000 )
                  (  0.0000000 -1.0000000  0.0000000 )
                  (  0.0000000  0.0000000  1.0000000 )


      isym =  3     180 deg rotation - cart. axis [0,1,0]        

 Time Reversal            1
 cryst.   s( 3) = (    -1          0          0      )
                  (     0          1          0      )
                  (     0          0         -1      )

 cart.    s( 3) = ( -1.0000000  0.0000000  0.0000000 )
                  (  0.0000000  1.0000000  0.0000000 )
                  (  0.0000000  0.0000000 -1.0000000 )


      isym =  4     180 deg rotation - cart. axis [1,0,0]        

 Time Reversal            1
 cryst.   s( 4) = (     1          0          0      )
                  (     0         -1          0      )
                  (     0          0         -1      )

 cart.    s( 4) = (  1.0000000  0.0000000  0.0000000 )
                  (  0.0000000 -1.0000000  0.0000000 )
                  (  0.0000000  0.0000000 -1.0000000 )


      isym =  5     180 deg rotation - cart. axis [1,1,0]        

 Time Reversal            1
 cryst.   s( 5) = (     0          1          0      )
                  (     1          0          0      )
                  (     0          0         -1      )

 cart.    s( 5) = (  0.0000000  1.0000000  0.0000000 )
                  (  1.0000000  0.0000000  0.0000000 )
                  (  0.0000000  0.0000000 -1.0000000 )


      isym =  6     180 deg rotation - cart. axis [1,-1,0]       

 Time Reversal            1
 cryst.   s( 6) = (     0         -1          0      )
                  (    -1          0          0      )
                  (     0          0         -1      )

 cart.    s( 6) = (  0.0000000 -1.0000000  0.0000000 )
                  ( -1.0000000  0.0000000  0.0000000 )
                  (  0.0000000  0.0000000 -1.0000000 )


      isym =  7      90 deg rotation - cart. axis [0,0,-1]       

 Time Reversal            0
 cryst.   s( 7) = (     0         -1          0      )
                  (     1          0          0      )
                  (     0          0          1      )

 cart.    s( 7) = (  0.0000000  1.0000000  0.0000000 )
                  ( -1.0000000  0.0000000  0.0000000 )
                  (  0.0000000  0.0000000  1.0000000 )


      isym =  8      90 deg rotation - cart. axis [0,0,1]        

 Time Reversal            0
 cryst.   s( 8) = (     0          1          0      )
                  (    -1          0          0      )
                  (     0          0          1      )

 cart.    s( 8) = (  0.0000000 -1.0000000  0.0000000 )
                  (  1.0000000  0.0000000  0.0000000 )
                  (  0.0000000  0.0000000  1.0000000 )


      isym =  9     inversion                                    

 Time Reversal            0
 cryst.   s( 9) = (    -1          0          0      )
                  (     0         -1          0      )
                  (     0          0         -1      )

 cart.    s( 9) = ( -1.0000000  0.0000000  0.0000000 )
                  (  0.0000000 -1.0000000  0.0000000 )
                  (  0.0000000  0.0000000 -1.0000000 )


      isym = 10     inv. 180 deg rotation - cart. axis [0,0,1]   

 Time Reversal            0
 cryst.   s(10) = (     1          0          0      )
                  (     0          1          0      )
                  (     0          0         -1      )

 cart.    s(10) = (  1.0000000  0.0000000  0.0000000 )
                  (  0.0000000  1.0000000  0.0000000 )
                  (  0.0000000  0.0000000 -1.0000000 )


      isym = 11     inv. 180 deg rotation - cart. axis [0,1,0]   

 Time Reversal            1
 cryst.   s(11) = (     1          0          0      )
                  (     0         -1          0      )
                  (     0          0          1      )

 cart.    s(11) = (  1.0000000  0.0000000  0.0000000 )
                  (  0.0000000 -1.0000000  0.0000000 )
                  (  0.0000000  0.0000000  1.0000000 )


      isym = 12     inv. 180 deg rotation - cart. axis [1,0,0]   

 Time Reversal            1
 cryst.   s(12) = (    -1          0          0      )
                  (     0          1          0      )
                  (     0          0          1      )

 cart.    s(12) = ( -1.0000000  0.0000000  0.0000000 )
                  (  0.0000000  1.0000000  0.0000000 )
                  (  0.0000000  0.0000000  1.0000000 )


      isym = 13     inv. 180 deg rotation - cart. axis [1,1,0]   

 Time Reversal            1
 cryst.   s(13) = (     0         -1          0      )
                  (    -1          0          0      )
                  (     0          0          1      )

 cart.    s(13) = (  0.0000000 -1.0000000  0.0000000 )
                  ( -1.0000000  0.0000000  0.0000000 )
                  (  0.0000000  0.0000000  1.0000000 )


      isym = 14     inv. 180 deg rotation - cart. axis [1,-1,0]  

 Time Reversal            1
 cryst.   s(14) = (     0          1          0      )
                  (     1          0          0      )
                  (     0          0          1      )

 cart.    s(14) = (  0.0000000  1.0000000  0.0000000 )
                  (  1.0000000  0.0000000  0.0000000 )
                  (  0.0000000  0.0000000  1.0000000 )


      isym = 15     inv.  90 deg rotation - cart. axis [0,0,-1]  

 Time Reversal            0
 cryst.   s(15) = (     0          1          0      )
                  (    -1          0          0      )
                  (     0          0         -1      )

 cart.    s(15) = (  0.0000000 -1.0000000  0.0000000 )
                  (  1.0000000  0.0000000  0.0000000 )
                  (  0.0000000  0.0000000 -1.0000000 )


      isym = 16     inv.  90 deg rotation - cart. axis [0,0,1]   

 Time Reversal            0
 cryst.   s(16) = (     0         -1          0      )
                  (     1          0          0      )
                  (     0          0         -1      )

 cart.    s(16) = (  0.0000000  1.0000000  0.0000000 )
                  ( -1.0000000  0.0000000  0.0000000 )
                  (  0.0000000  0.0000000 -1.0000000 )


     the magnetic double point group is D_4h(4/mmm) [C_4h (4/m) ]
     using the double point group C_4h (4/m) 
     there are 16 classes and  8 irreducible representations
     the character table:

       E     -E    C4    -C4   C2    -C2   C4^3  -C4^3 i     -i    S4^3  -S4^3
                                                                              
G_5+   1.00 -1.00  0.71 -0.71  0.00  0.00  0.71 -0.71  1.00 -1.00  0.71 -0.71
G_6+   1.00 -1.00  0.71 -0.71  0.00  0.00  0.71 -0.71  1.00 -1.00  0.71 -0.71
G_7+   1.00 -1.00 -0.71  0.71  0.00  0.00 -0.71  0.71  1.00 -1.00 -0.71  0.71
G_8+   1.00 -1.00 -0.71  0.71  0.00  0.00 -0.71  0.71  1.00 -1.00 -0.71  0.71
G_5-   1.00 -1.00  0.71 -0.71  0.00  0.00  0.71 -0.71 -1.00  1.00 -0.71  0.71
G_6-   1.00 -1.00  0.71 -0.71  0.00  0.00  0.71 -0.71 -1.00  1.00 -0.71  0.71
G_7-   1.00 -1.00 -0.71  0.71  0.00  0.00 -0.71  0.71 -1.00  1.00  0.71 -0.71
G_8-   1.00 -1.00 -0.71  0.71  0.00  0.00 -0.71  0.71 -1.00  1.00  0.71 -0.71

       s_h   -s_h  S4    -S4  
                              
G_5+   0.00  0.00  0.71 -0.71
G_6+   0.00  0.00  0.71 -0.71
G_7+   0.00  0.00 -0.71  0.71
G_8+   0.00  0.00 -0.71  0.71
G_5-   0.00  0.00 -0.71  0.71
G_6-   0.00  0.00 -0.71  0.71
G_7-   0.00  0.00  0.71 -0.71
G_8-   0.00  0.00  0.71 -0.71

     imaginary part

       E     -E    C4    -C4   C2    -C2   C4^3  -C4^3 i     -i    S4^3  -S4^3
                                                                              
G_5+   0.00  0.00  0.71 -0.71  1.00 -1.00 -0.71  0.71  0.00  0.00  0.71 -0.71
G_6+   0.00  0.00 -0.71  0.71 -1.00  1.00  0.71 -0.71  0.00  0.00 -0.71  0.71
G_7+   0.00  0.00 -0.71  0.71  1.00 -1.00  0.71 -0.71  0.00  0.00 -0.71  0.71
G_8+   0.00  0.00  0.71 -0.71 -1.00  1.00 -0.71  0.71  0.00  0.00  0.71 -0.71
G_5-   0.00  0.00  0.71 -0.71  1.00 -1.00 -0.71  0.71  0.00  0.00 -0.71  0.71
G_6-   0.00  0.00 -0.71  0.71 -1.00  1.00  0.71 -0.71  0.00  0.00  0.71 -0.71
G_7-   0.00  0.00 -0.71  0.71  1.00 -1.00  0.71 -0.71  0.00  0.00  0.71 -0.71
G_8-   0.00  0.00  0.71 -0.71 -1.00  1.00 -0.71  0.71  0.00  0.00 -0.71  0.71

       s_h   -s_h  S4    -S4  
                              
G_5+   1.00 -1.00 -0.71  0.71
G_6+  -1.00  1.00  0.71 -0.71
G_7+   1.00 -1.00  0.71 -0.71
G_8+  -1.00  1.00 -0.71  0.71
G_5-  -1.00  1.00  0.71 -0.71
G_6-   1.00 -1.00 -0.71  0.71
G_7-  -1.00  1.00 -0.71  0.71
G_8-   1.00 -1.00  0.71 -0.71

     the symmetry operations in each class and the name of the first element:

     E             1
          identity                                               
     -E           -1
          identity E                                             
     C4            4
           90 deg rotation - cart. axis [0,0,1]                  
     -C4          -4
           90 deg rotation - cart. axis [0,0,1] E                
     C2            2
          180 deg rotation - cart. axis [0,0,1]                  
     -C2          -2
          180 deg rotation - cart. axis [0,0,1] E                
     C4^3          3
           90 deg rotation - cart. axis [0,0,-1]                 
     -C4^3        -3
           90 deg rotation - cart. axis [0,0,-1] E               
     i             5
          inversion                                              
     -i           -5
          inversion E                                            
     S4^3          8
          inv.  90 deg rotation - cart. axis [0,0,1]             
     -S4^3        -8
          inv.  90 deg rotation - cart. axis [0,0,1] E           
     s_h           6
          inv. 180 deg rotation - cart. axis [0,0,1]             
     -s_h         -6
          inv. 180 deg rotation - cart. axis [0,0,1] E           
     S4            7
          inv.  90 deg rotation - cart. axis [0,0,-1]            
     -S4          -7
          inv.  90 deg rotation - cart. axis [0,0,-1] E          

   Cartesian axes

     site n.     atom                  positions (alat units)
         1           Fe  tau(   1) = (   0.0000000   0.0000000   0.0000000  )
         2           Pt  tau(   2) = (   0.5000000   0.5000000   0.6925927  )

   Crystallographic axes

     site n.     atom                  positions (cryst. coord.)
         1           Fe  tau(   1) = (  0.0000000  0.0000000  0.0000000  )
         2           Pt  tau(   2) = (  0.5000000  0.5000000  0.5000000  )

     number of k points=   486  Methfessel-Paxton smearing, width (Ry)=  0.0100
                       cart. coord. in units 2pi/alat
        k(    1) = (   0.0000000   0.0000000   0.0000000), wk =   0.0020576
        k(    2) = (   0.0000000   0.0000000   0.1203208), wk =   0.0020576
        k(    3) = (   0.0000000   0.0000000   0.2406417), wk =   0.0020576
        k(    4) = (   0.0000000   0.0000000  -0.3609625), wk =   0.0020576
        k(    5) = (   0.0000000   0.0000000  -0.2406417), wk =   0.0020576
        k(    6) = (   0.0000000   0.0000000  -0.1203208), wk =   0.0020576
        k(    7) = (   0.0000000   0.1111111   0.0000000), wk =   0.0020576
        k(    8) = (   0.0000000   0.1111111   0.1203208), wk =   0.0020576
        k(    9) = (   0.0000000   0.1111111   0.2406417), wk =   0.0020576
        k(   10) = (   0.0000000   0.1111111  -0.3609625), wk =   0.0020576
        k(   11) = (   0.0000000   0.1111111  -0.2406417), wk =   0.0020576
        k(   12) = (   0.0000000   0.1111111  -0.1203208), wk =   0.0020576
        k(   13) = (   0.0000000   0.2222222   0.0000000), wk =   0.0020576
        k(   14) = (   0.0000000   0.2222222   0.1203208), wk =   0.0020576
        k(   15) = (   0.0000000   0.2222222   0.2406417), wk =   0.0020576
        k(   16) = (   0.0000000   0.2222222  -0.3609625), wk =   0.0020576
        k(   17) = (   0.0000000   0.2222222  -0.2406417), wk =   0.0020576
        k(   18) = (   0.0000000   0.2222222  -0.1203208), wk =   0.0020576
        k(   19) = (   0.0000000   0.3333333   0.0000000), wk =   0.0020576
        k(   20) = (   0.0000000   0.3333333   0.1203208), wk =   0.0020576
        k(   21) = (   0.0000000   0.3333333   0.2406417), wk =   0.0020576
        k(   22) = (   0.0000000   0.3333333  -0.3609625), wk =   0.0020576
        k(   23) = (   0.0000000   0.3333333  -0.2406417), wk =   0.0020576
        k(   24) = (   0.0000000   0.3333333  -0.1203208), wk =   0.0020576
        k(   25) = (   0.0000000   0.4444444   0.0000000), wk =   0.0020576
        k(   26) = (   0.0000000   0.4444444   0.1203208), wk =   0.0020576
        k(   27) = (   0.0000000   0.4444444   0.2406417), wk =   0.0020576
        k(   28) = (   0.0000000   0.4444444  -0.3609625), wk =   0.0020576
        k(   29) = (   0.0000000   0.4444444  -0.2406417), wk =   0.0020576
        k(   30) = (   0.0000000   0.4444444  -0.1203208), wk =   0.0020576
        k(   31) = (   0.0000000  -0.4444444   0.0000000), wk =   0.0020576
        k(   32) = (   0.0000000  -0.4444444   0.1203208), wk =   0.0020576
        k(   33) = (   0.0000000  -0.4444444   0.2406417), wk =   0.0020576
        k(   34) = (   0.0000000  -0.4444444  -0.3609625), wk =   0.0020576
        k(   35) = (   0.0000000  -0.4444444  -0.2406417), wk =   0.0020576
        k(   36) = (   0.0000000  -0.4444444  -0.1203208), wk =   0.0020576
        k(   37) = (   0.0000000  -0.3333333   0.0000000), wk =   0.0020576
        k(   38) = (   0.0000000  -0.3333333   0.1203208), wk =   0.0020576
        k(   39) = (   0.0000000  -0.3333333   0.2406417), wk =   0.0020576
        k(   40) = (   0.0000000  -0.3333333  -0.3609625), wk =   0.0020576
        k(   41) = (   0.0000000  -0.3333333  -0.2406417), wk =   0.0020576
        k(   42) = (   0.0000000  -0.3333333  -0.1203208), wk =   0.0020576
        k(   43) = (   0.0000000  -0.2222222   0.0000000), wk =   0.0020576
        k(   44) = (   0.0000000  -0.2222222   0.1203208), wk =   0.0020576
        k(   45) = (   0.0000000  -0.2222222   0.2406417), wk =   0.0020576
        k(   46) = (   0.0000000  -0.2222222  -0.3609625), wk =   0.0020576
        k(   47) = (   0.0000000  -0.2222222  -0.2406417), wk =   0.0020576
        k(   48) = (   0.0000000  -0.2222222  -0.1203208), wk =   0.0020576
        k(   49) = (   0.0000000  -0.1111111   0.0000000), wk =   0.0020576
        k(   50) = (   0.0000000  -0.1111111   0.1203208), wk =   0.0020576
        k(   51) = (   0.0000000  -0.1111111   0.2406417), wk =   0.0020576
        k(   52) = (   0.0000000  -0.1111111  -0.3609625), wk =   0.0020576
        k(   53) = (   0.0000000  -0.1111111  -0.2406417), wk =   0.0020576
        k(   54) = (   0.0000000  -0.1111111  -0.1203208), wk =   0.0020576
        k(   55) = (   0.1111111   0.0000000   0.0000000), wk =   0.0020576
        k(   56) = (   0.1111111   0.0000000   0.1203208), wk =   0.0020576
        k(   57) = (   0.1111111   0.0000000   0.2406417), wk =   0.0020576
        k(   58) = (   0.1111111   0.0000000  -0.3609625), wk =   0.0020576
        k(   59) = (   0.1111111   0.0000000  -0.2406417), wk =   0.0020576
        k(   60) = (   0.1111111   0.0000000  -0.1203208), wk =   0.0020576
        k(   61) = (   0.1111111   0.1111111   0.0000000), wk =   0.0020576
        k(   62) = (   0.1111111   0.1111111   0.1203208), wk =   0.0020576
        k(   63) = (   0.1111111   0.1111111   0.2406417), wk =   0.0020576
        k(   64) = (   0.1111111   0.1111111  -0.3609625), wk =   0.0020576
        k(   65) = (   0.1111111   0.1111111  -0.2406417), wk =   0.0020576
        k(   66) = (   0.1111111   0.1111111  -0.1203208), wk =   0.0020576
        k(   67) = (   0.1111111   0.2222222   0.0000000), wk =   0.0020576
        k(   68) = (   0.1111111   0.2222222   0.1203208), wk =   0.0020576
        k(   69) = (   0.1111111   0.2222222   0.2406417), wk =   0.0020576
        k(   70) = (   0.1111111   0.2222222  -0.3609625), wk =   0.0020576
        k(   71) = (   0.1111111   0.2222222  -0.2406417), wk =   0.0020576
        k(   72) = (   0.1111111   0.2222222  -0.1203208), wk =   0.0020576
        k(   73) = (   0.1111111   0.3333333   0.0000000), wk =   0.0020576
        k(   74) = (   0.1111111   0.3333333   0.1203208), wk =   0.0020576
        k(   75) = (   0.1111111   0.3333333   0.2406417), wk =   0.0020576
        k(   76) = (   0.1111111   0.3333333  -0.3609625), wk =   0.0020576
        k(   77) = (   0.1111111   0.3333333  -0.2406417), wk =   0.0020576
        k(   78) = (   0.1111111   0.3333333  -0.1203208), wk =   0.0020576
        k(   79) = (   0.1111111   0.4444444   0.0000000), wk =   0.0020576
        k(   80) = (   0.1111111   0.4444444   0.1203208), wk =   0.0020576
        k(   81) = (   0.1111111   0.4444444   0.2406417), wk =   0.0020576
        k(   82) = (   0.1111111   0.4444444  -0.3609625), wk =   0.0020576
        k(   83) = (   0.1111111   0.4444444  -0.2406417), wk =   0.0020576
        k(   84) = (   0.1111111   0.4444444  -0.1203208), wk =   0.0020576
        k(   85) = (   0.1111111  -0.4444444   0.0000000), wk =   0.0020576
        k(   86) = (   0.1111111  -0.4444444   0.1203208), wk =   0.0020576
        k(   87) = (   0.1111111  -0.4444444   0.2406417), wk =   0.0020576
        k(   88) = (   0.1111111  -0.4444444  -0.3609625), wk =   0.0020576
        k(   89) = (   0.1111111  -0.4444444  -0.2406417), wk =   0.0020576
        k(   90) = (   0.1111111  -0.4444444  -0.1203208), wk =   0.0020576
        k(   91) = (   0.1111111  -0.3333333   0.0000000), wk =   0.0020576
        k(   92) = (   0.1111111  -0.3333333   0.1203208), wk =   0.0020576
        k(   93) = (   0.1111111  -0.3333333   0.2406417), wk =   0.0020576
        k(   94) = (   0.1111111  -0.3333333  -0.3609625), wk =   0.0020576
        k(   95) = (   0.1111111  -0.3333333  -0.2406417), wk =   0.0020576
        k(   96) = (   0.1111111  -0.3333333  -0.1203208), wk =   0.0020576
        k(   97) = (   0.1111111  -0.2222222   0.0000000), wk =   0.0020576
        k(   98) = (   0.1111111  -0.2222222   0.1203208), wk =   0.0020576
        k(   99) = (   0.1111111  -0.2222222   0.2406417), wk =   0.0020576
        k(  100) = (   0.1111111  -0.2222222  -0.3609625), wk =   0.0020576
        k(  101) = (   0.1111111  -0.2222222  -0.2406417), wk =   0.0020576
        k(  102) = (   0.1111111  -0.2222222  -0.1203208), wk =   0.0020576
        k(  103) = (   0.1111111  -0.1111111   0.0000000), wk =   0.0020576
        k(  104) = (   0.1111111  -0.1111111   0.1203208), wk =   0.0020576
        k(  105) = (   0.1111111  -0.1111111   0.2406417), wk =   0.0020576
        k(  106) = (   0.1111111  -0.1111111  -0.3609625), wk =   0.0020576
        k(  107) = (   0.1111111  -0.1111111  -0.2406417), wk =   0.0020576
        k(  108) = (   0.1111111  -0.1111111  -0.1203208), wk =   0.0020576
        k(  109) = (   0.2222222   0.0000000   0.0000000), wk =   0.0020576
        k(  110) = (   0.2222222   0.0000000   0.1203208), wk =   0.0020576
        k(  111) = (   0.2222222   0.0000000   0.2406417), wk =   0.0020576
        k(  112) = (   0.2222222   0.0000000  -0.3609625), wk =   0.0020576
        k(  113) = (   0.2222222   0.0000000  -0.2406417), wk =   0.0020576
        k(  114) = (   0.2222222   0.0000000  -0.1203208), wk =   0.0020576
        k(  115) = (   0.2222222   0.1111111   0.0000000), wk =   0.0020576
        k(  116) = (   0.2222222   0.1111111   0.1203208), wk =   0.0020576
        k(  117) = (   0.2222222   0.1111111   0.2406417), wk =   0.0020576
        k(  118) = (   0.2222222   0.1111111  -0.3609625), wk =   0.0020576
        k(  119) = (   0.2222222   0.1111111  -0.2406417), wk =   0.0020576
        k(  120) = (   0.2222222   0.1111111  -0.1203208), wk =   0.0020576
        k(  121) = (   0.2222222   0.2222222   0.0000000), wk =   0.0020576
        k(  122) = (   0.2222222   0.2222222   0.1203208), wk =   0.0020576
        k(  123) = (   0.2222222   0.2222222   0.2406417), wk =   0.0020576
        k(  124) = (   0.2222222   0.2222222  -0.3609625), wk =   0.0020576
        k(  125) = (   0.2222222   0.2222222  -0.2406417), wk =   0.0020576
        k(  126) = (   0.2222222   0.2222222  -0.1203208), wk =   0.0020576
        k(  127) = (   0.2222222   0.3333333   0.0000000), wk =   0.0020576
        k(  128) = (   0.2222222   0.3333333   0.1203208), wk =   0.0020576
        k(  129) = (   0.2222222   0.3333333   0.2406417), wk =   0.0020576
        k(  130) = (   0.2222222   0.3333333  -0.3609625), wk =   0.0020576
        k(  131) = (   0.2222222   0.3333333  -0.2406417), wk =   0.0020576
        k(  132) = (   0.2222222   0.3333333  -0.1203208), wk =   0.0020576
        k(  133) = (   0.2222222   0.4444444   0.0000000), wk =   0.0020576
        k(  134) = (   0.2222222   0.4444444   0.1203208), wk =   0.0020576
        k(  135) = (   0.2222222   0.4444444   0.2406417), wk =   0.0020576
        k(  136) = (   0.2222222   0.4444444  -0.3609625), wk =   0.0020576
        k(  137) = (   0.2222222   0.4444444  -0.2406417), wk =   0.0020576
        k(  138) = (   0.2222222   0.4444444  -0.1203208), wk =   0.0020576
        k(  139) = (   0.2222222  -0.4444444   0.0000000), wk =   0.0020576
        k(  140) = (   0.2222222  -0.4444444   0.1203208), wk =   0.0020576
        k(  141) = (   0.2222222  -0.4444444   0.2406417), wk =   0.0020576
        k(  142) = (   0.2222222  -0.4444444  -0.3609625), wk =   0.0020576
        k(  143) = (   0.2222222  -0.4444444  -0.2406417), wk =   0.0020576
        k(  144) = (   0.2222222  -0.4444444  -0.1203208), wk =   0.0020576
        k(  145) = (   0.2222222  -0.3333333   0.0000000), wk =   0.0020576
        k(  146) = (   0.2222222  -0.3333333   0.1203208), wk =   0.0020576
        k(  147) = (   0.2222222  -0.3333333   0.2406417), wk =   0.0020576
        k(  148) = (   0.2222222  -0.3333333  -0.3609625), wk =   0.0020576
        k(  149) = (   0.2222222  -0.3333333  -0.2406417), wk =   0.0020576
        k(  150) = (   0.2222222  -0.3333333  -0.1203208), wk =   0.0020576
        k(  151) = (   0.2222222  -0.2222222   0.0000000), wk =   0.0020576
        k(  152) = (   0.2222222  -0.2222222   0.1203208), wk =   0.0020576
        k(  153) = (   0.2222222  -0.2222222   0.2406417), wk =   0.0020576
        k(  154) = (   0.2222222  -0.2222222  -0.3609625), wk =   0.0020576
        k(  155) = (   0.2222222  -0.2222222  -0.2406417), wk =   0.0020576
        k(  156) = (   0.2222222  -0.2222222  -0.1203208), wk =   0.0020576
        k(  157) = (   0.2222222  -0.1111111   0.0000000), wk =   0.0020576
        k(  158) = (   0.2222222  -0.1111111   0.1203208), wk =   0.0020576
        k(  159) = (   0.2222222  -0.1111111   0.2406417), wk =   0.0020576
        k(  160) = (   0.2222222  -0.1111111  -0.3609625), wk =   0.0020576
        k(  161) = (   0.2222222  -0.1111111  -0.2406417), wk =   0.0020576
        k(  162) = (   0.2222222  -0.1111111  -0.1203208), wk =   0.0020576
        k(  163) = (   0.3333333   0.0000000   0.0000000), wk =   0.0020576
        k(  164) = (   0.3333333   0.0000000   0.1203208), wk =   0.0020576
        k(  165) = (   0.3333333   0.0000000   0.2406417), wk =   0.0020576
        k(  166) = (   0.3333333   0.0000000  -0.3609625), wk =   0.0020576
        k(  167) = (   0.3333333   0.0000000  -0.2406417), wk =   0.0020576
        k(  168) = (   0.3333333   0.0000000  -0.1203208), wk =   0.0020576
        k(  169) = (   0.3333333   0.1111111   0.0000000), wk =   0.0020576
        k(  170) = (   0.3333333   0.1111111   0.1203208), wk =   0.0020576
        k(  171) = (   0.3333333   0.1111111   0.2406417), wk =   0.0020576
        k(  172) = (   0.3333333   0.1111111  -0.3609625), wk =   0.0020576
        k(  173) = (   0.3333333   0.1111111  -0.2406417), wk =   0.0020576
        k(  174) = (   0.3333333   0.1111111  -0.1203208), wk =   0.0020576
        k(  175) = (   0.3333333   0.2222222   0.0000000), wk =   0.0020576
        k(  176) = (   0.3333333   0.2222222   0.1203208), wk =   0.0020576
        k(  177) = (   0.3333333   0.2222222   0.2406417), wk =   0.0020576
        k(  178) = (   0.3333333   0.2222222  -0.3609625), wk =   0.0020576
        k(  179) = (   0.3333333   0.2222222  -0.2406417), wk =   0.0020576
        k(  180) = (   0.3333333   0.2222222  -0.1203208), wk =   0.0020576
        k(  181) = (   0.3333333   0.3333333   0.0000000), wk =   0.0020576
        k(  182) = (   0.3333333   0.3333333   0.1203208), wk =   0.0020576
        k(  183) = (   0.3333333   0.3333333   0.2406417), wk =   0.0020576
        k(  184) = (   0.3333333   0.3333333  -0.3609625), wk =   0.0020576
        k(  185) = (   0.3333333   0.3333333  -0.2406417), wk =   0.0020576
        k(  186) = (   0.3333333   0.3333333  -0.1203208), wk =   0.0020576
        k(  187) = (   0.3333333   0.4444444   0.0000000), wk =   0.0020576
        k(  188) = (   0.3333333   0.4444444   0.1203208), wk =   0.0020576
        k(  189) = (   0.3333333   0.4444444   0.2406417), wk =   0.0020576
        k(  190) = (   0.3333333   0.4444444  -0.3609625), wk =   0.0020576
        k(  191) = (   0.3333333   0.4444444  -0.2406417), wk =   0.0020576
        k(  192) = (   0.3333333   0.4444444  -0.1203208), wk =   0.0020576
        k(  193) = (   0.3333333  -0.4444444   0.0000000), wk =   0.0020576
        k(  194) = (   0.3333333  -0.4444444   0.1203208), wk =   0.0020576
        k(  195) = (   0.3333333  -0.4444444   0.2406417), wk =   0.0020576
        k(  196) = (   0.3333333  -0.4444444  -0.3609625), wk =   0.0020576
        k(  197) = (   0.3333333  -0.4444444  -0.2406417), wk =   0.0020576
        k(  198) = (   0.3333333  -0.4444444  -0.1203208), wk =   0.0020576
        k(  199) = (   0.3333333  -0.3333333   0.0000000), wk =   0.0020576
        k(  200) = (   0.3333333  -0.3333333   0.1203208), wk =   0.0020576
        k(  201) = (   0.3333333  -0.3333333   0.2406417), wk =   0.0020576
        k(  202) = (   0.3333333  -0.3333333  -0.3609625), wk =   0.0020576
        k(  203) = (   0.3333333  -0.3333333  -0.2406417), wk =   0.0020576
        k(  204) = (   0.3333333  -0.3333333  -0.1203208), wk =   0.0020576
        k(  205) = (   0.3333333  -0.2222222   0.0000000), wk =   0.0020576
        k(  206) = (   0.3333333  -0.2222222   0.1203208), wk =   0.0020576
        k(  207) = (   0.3333333  -0.2222222   0.2406417), wk =   0.0020576
        k(  208) = (   0.3333333  -0.2222222  -0.3609625), wk =   0.0020576
        k(  209) = (   0.3333333  -0.2222222  -0.2406417), wk =   0.0020576
        k(  210) = (   0.3333333  -0.2222222  -0.1203208), wk =   0.0020576
        k(  211) = (   0.3333333  -0.1111111   0.0000000), wk =   0.0020576
        k(  212) = (   0.3333333  -0.1111111   0.1203208), wk =   0.0020576
        k(  213) = (   0.3333333  -0.1111111   0.2406417), wk =   0.0020576
        k(  214) = (   0.3333333  -0.1111111  -0.3609625), wk =   0.0020576
        k(  215) = (   0.3333333  -0.1111111  -0.2406417), wk =   0.0020576
        k(  216) = (   0.3333333  -0.1111111  -0.1203208), wk =   0.0020576
        k(  217) = (   0.4444444   0.0000000   0.0000000), wk =   0.0020576
        k(  218) = (   0.4444444   0.0000000   0.1203208), wk =   0.0020576
        k(  219) = (   0.4444444   0.0000000   0.2406417), wk =   0.0020576
        k(  220) = (   0.4444444   0.0000000  -0.3609625), wk =   0.0020576
        k(  221) = (   0.4444444   0.0000000  -0.2406417), wk =   0.0020576
        k(  222) = (   0.4444444   0.0000000  -0.1203208), wk =   0.0020576
        k(  223) = (   0.4444444   0.1111111   0.0000000), wk =   0.0020576
        k(  224) = (   0.4444444   0.1111111   0.1203208), wk =   0.0020576
        k(  225) = (   0.4444444   0.1111111   0.2406417), wk =   0.0020576
        k(  226) = (   0.4444444   0.1111111  -0.3609625), wk =   0.0020576
        k(  227) = (   0.4444444   0.1111111  -0.2406417), wk =   0.0020576
        k(  228) = (   0.4444444   0.1111111  -0.1203208), wk =   0.0020576
        k(  229) = (   0.4444444   0.2222222   0.0000000), wk =   0.0020576
        k(  230) = (   0.4444444   0.2222222   0.1203208), wk =   0.0020576
        k(  231) = (   0.4444444   0.2222222   0.2406417), wk =   0.0020576
        k(  232) = (   0.4444444   0.2222222  -0.3609625), wk =   0.0020576
        k(  233) = (   0.4444444   0.2222222  -0.2406417), wk =   0.0020576
        k(  234) = (   0.4444444   0.2222222  -0.1203208), wk =   0.0020576
        k(  235) = (   0.4444444   0.3333333   0.0000000), wk =   0.0020576
        k(  236) = (   0.4444444   0.3333333   0.1203208), wk =   0.0020576
        k(  237) = (   0.4444444   0.3333333   0.2406417), wk =   0.0020576
        k(  238) = (   0.4444444   0.3333333  -0.3609625), wk =   0.0020576
        k(  239) = (   0.4444444   0.3333333  -0.2406417), wk =   0.0020576
        k(  240) = (   0.4444444   0.3333333  -0.1203208), wk =   0.0020576
        k(  241) = (   0.4444444   0.4444444   0.0000000), wk =   0.0020576
        k(  242) = (   0.4444444   0.4444444   0.1203208), wk =   0.0020576
        k(  243) = (   0.4444444   0.4444444   0.2406417), wk =   0.0020576
        k(  244) = (   0.4444444   0.4444444  -0.3609625), wk =   0.0020576
        k(  245) = (   0.4444444   0.4444444  -0.2406417), wk =   0.0020576
        k(  246) = (   0.4444444   0.4444444  -0.1203208), wk =   0.0020576
        k(  247) = (   0.4444444  -0.4444444   0.0000000), wk =   0.0020576
        k(  248) = (   0.4444444  -0.4444444   0.1203208), wk =   0.0020576
        k(  249) = (   0.4444444  -0.4444444   0.2406417), wk =   0.0020576
        k(  250) = (   0.4444444  -0.4444444  -0.3609625), wk =   0.0020576
        k(  251) = (   0.4444444  -0.4444444  -0.2406417), wk =   0.0020576
        k(  252) = (   0.4444444  -0.4444444  -0.1203208), wk =   0.0020576
        k(  253) = (   0.4444444  -0.3333333   0.0000000), wk =   0.0020576
        k(  254) = (   0.4444444  -0.3333333   0.1203208), wk =   0.0020576
        k(  255) = (   0.4444444  -0.3333333   0.2406417), wk =   0.0020576
        k(  256) = (   0.4444444  -0.3333333  -0.3609625), wk =   0.0020576
        k(  257) = (   0.4444444  -0.3333333  -0.2406417), wk =   0.0020576
        k(  258) = (   0.4444444  -0.3333333  -0.1203208), wk =   0.0020576
        k(  259) = (   0.4444444  -0.2222222   0.0000000), wk =   0.0020576
        k(  260) = (   0.4444444  -0.2222222   0.1203208), wk =   0.0020576
        k(  261) = (   0.4444444  -0.2222222   0.2406417), wk =   0.0020576
        k(  262) = (   0.4444444  -0.2222222  -0.3609625), wk =   0.0020576
        k(  263) = (   0.4444444  -0.2222222  -0.2406417), wk =   0.0020576
        k(  264) = (   0.4444444  -0.2222222  -0.1203208), wk =   0.0020576
        k(  265) = (   0.4444444  -0.1111111   0.0000000), wk =   0.0020576
        k(  266) = (   0.4444444  -0.1111111   0.1203208), wk =   0.0020576
        k(  267) = (   0.4444444  -0.1111111   0.2406417), wk =   0.0020576
        k(  268) = (   0.4444444  -0.1111111  -0.3609625), wk =   0.0020576
        k(  269) = (   0.4444444  -0.1111111  -0.2406417), wk =   0.0020576
        k(  270) = (   0.4444444  -0.1111111  -0.1203208), wk =   0.0020576
        k(  271) = (  -0.4444444   0.0000000   0.0000000), wk =   0.0020576
        k(  272) = (  -0.4444444   0.0000000   0.1203208), wk =   0.0020576
        k(  273) = (  -0.4444444   0.0000000   0.2406417), wk =   0.0020576
        k(  274) = (  -0.4444444   0.0000000  -0.3609625), wk =   0.0020576
        k(  275) = (  -0.4444444   0.0000000  -0.2406417), wk =   0.0020576
        k(  276) = (  -0.4444444   0.0000000  -0.1203208), wk =   0.0020576
        k(  277) = (  -0.4444444   0.1111111   0.0000000), wk =   0.0020576
        k(  278) = (  -0.4444444   0.1111111   0.1203208), wk =   0.0020576
        k(  279) = (  -0.4444444   0.1111111   0.2406417), wk =   0.0020576
        k(  280) = (  -0.4444444   0.1111111  -0.3609625), wk =   0.0020576
        k(  281) = (  -0.4444444   0.1111111  -0.2406417), wk =   0.0020576
        k(  282) = (  -0.4444444   0.1111111  -0.1203208), wk =   0.0020576
        k(  283) = (  -0.4444444   0.2222222   0.0000000), wk =   0.0020576
        k(  284) = (  -0.4444444   0.2222222   0.1203208), wk =   0.0020576
        k(  285) = (  -0.4444444   0.2222222   0.2406417), wk =   0.0020576
        k(  286) = (  -0.4444444   0.2222222  -0.3609625), wk =   0.0020576
        k(  287) = (  -0.4444444   0.2222222  -0.2406417), wk =   0.0020576
        k(  288) = (  -0.4444444   0.2222222  -0.1203208), wk =   0.0020576
        k(  289) = (  -0.4444444   0.3333333   0.0000000), wk =   0.0020576
        k(  290) = (  -0.4444444   0.3333333   0.1203208), wk =   0.0020576
        k(  291) = (  -0.4444444   0.3333333   0.2406417), wk =   0.0020576
        k(  292) = (  -0.4444444   0.3333333  -0.3609625), wk =   0.0020576
        k(  293) = (  -0.4444444   0.3333333  -0.2406417), wk =   0.0020576
        k(  294) = (  -0.4444444   0.3333333  -0.1203208), wk =   0.0020576
        k(  295) = (  -0.4444444   0.4444444   0.0000000), wk =   0.0020576
        k(  296) = (  -0.4444444   0.4444444   0.1203208), wk =   0.0020576
        k(  297) = (  -0.4444444   0.4444444   0.2406417), wk =   0.0020576
        k(  298) = (  -0.4444444   0.4444444  -0.3609625), wk =   0.0020576
        k(  299) = (  -0.4444444   0.4444444  -0.2406417), wk =   0.0020576
        k(  300) = (  -0.4444444   0.4444444  -0.1203208), wk =   0.0020576
        k(  301) = (  -0.4444444  -0.4444444   0.0000000), wk =   0.0020576
        k(  302) = (  -0.4444444  -0.4444444   0.1203208), wk =   0.0020576
        k(  303) = (  -0.4444444  -0.4444444   0.2406417), wk =   0.0020576
        k(  304) = (  -0.4444444  -0.4444444  -0.3609625), wk =   0.0020576
        k(  305) = (  -0.4444444  -0.4444444  -0.2406417), wk =   0.0020576
        k(  306) = (  -0.4444444  -0.4444444  -0.1203208), wk =   0.0020576
        k(  307) = (  -0.4444444  -0.3333333   0.0000000), wk =   0.0020576
        k(  308) = (  -0.4444444  -0.3333333   0.1203208), wk =   0.0020576
        k(  309) = (  -0.4444444  -0.3333333   0.2406417), wk =   0.0020576
        k(  310) = (  -0.4444444  -0.3333333  -0.3609625), wk =   0.0020576
        k(  311) = (  -0.4444444  -0.3333333  -0.2406417), wk =   0.0020576
        k(  312) = (  -0.4444444  -0.3333333  -0.1203208), wk =   0.0020576
        k(  313) = (  -0.4444444  -0.2222222   0.0000000), wk =   0.0020576
        k(  314) = (  -0.4444444  -0.2222222   0.1203208), wk =   0.0020576
        k(  315) = (  -0.4444444  -0.2222222   0.2406417), wk =   0.0020576
        k(  316) = (  -0.4444444  -0.2222222  -0.3609625), wk =   0.0020576
        k(  317) = (  -0.4444444  -0.2222222  -0.2406417), wk =   0.0020576
        k(  318) = (  -0.4444444  -0.2222222  -0.1203208), wk =   0.0020576
        k(  319) = (  -0.4444444  -0.1111111   0.0000000), wk =   0.0020576
        k(  320) = (  -0.4444444  -0.1111111   0.1203208), wk =   0.0020576
        k(  321) = (  -0.4444444  -0.1111111   0.2406417), wk =   0.0020576
        k(  322) = (  -0.4444444  -0.1111111  -0.3609625), wk =   0.0020576
        k(  323) = (  -0.4444444  -0.1111111  -0.2406417), wk =   0.0020576
        k(  324) = (  -0.4444444  -0.1111111  -0.1203208), wk =   0.0020576
        k(  325) = (  -0.3333333   0.0000000   0.0000000), wk =   0.0020576
        k(  326) = (  -0.3333333   0.0000000   0.1203208), wk =   0.0020576
        k(  327) = (  -0.3333333   0.0000000   0.2406417), wk =   0.0020576
        k(  328) = (  -0.3333333   0.0000000  -0.3609625), wk =   0.0020576
        k(  329) = (  -0.3333333   0.0000000  -0.2406417), wk =   0.0020576
        k(  330) = (  -0.3333333   0.0000000  -0.1203208), wk =   0.0020576
        k(  331) = (  -0.3333333   0.1111111   0.0000000), wk =   0.0020576
        k(  332) = (  -0.3333333   0.1111111   0.1203208), wk =   0.0020576
        k(  333) = (  -0.3333333   0.1111111   0.2406417), wk =   0.0020576
        k(  334) = (  -0.3333333   0.1111111  -0.3609625), wk =   0.0020576
        k(  335) = (  -0.3333333   0.1111111  -0.2406417), wk =   0.0020576
        k(  336) = (  -0.3333333   0.1111111  -0.1203208), wk =   0.0020576
        k(  337) = (  -0.3333333   0.2222222   0.0000000), wk =   0.0020576
        k(  338) = (  -0.3333333   0.2222222   0.1203208), wk =   0.0020576
        k(  339) = (  -0.3333333   0.2222222   0.2406417), wk =   0.0020576
        k(  340) = (  -0.3333333   0.2222222  -0.3609625), wk =   0.0020576
        k(  341) = (  -0.3333333   0.2222222  -0.2406417), wk =   0.0020576
        k(  342) = (  -0.3333333   0.2222222  -0.1203208), wk =   0.0020576
        k(  343) = (  -0.3333333   0.3333333   0.0000000), wk =   0.0020576
        k(  344) = (  -0.3333333   0.3333333   0.1203208), wk =   0.0020576
        k(  345) = (  -0.3333333   0.3333333   0.2406417), wk =   0.0020576
        k(  346) = (  -0.3333333   0.3333333  -0.3609625), wk =   0.0020576
        k(  347) = (  -0.3333333   0.3333333  -0.2406417), wk =   0.0020576
        k(  348) = (  -0.3333333   0.3333333  -0.1203208), wk =   0.0020576
        k(  349) = (  -0.3333333   0.4444444   0.0000000), wk =   0.0020576
        k(  350) = (  -0.3333333   0.4444444   0.1203208), wk =   0.0020576
        k(  351) = (  -0.3333333   0.4444444   0.2406417), wk =   0.0020576
        k(  352) = (  -0.3333333   0.4444444  -0.3609625), wk =   0.0020576
        k(  353) = (  -0.3333333   0.4444444  -0.2406417), wk =   0.0020576
        k(  354) = (  -0.3333333   0.4444444  -0.1203208), wk =   0.0020576
        k(  355) = (  -0.3333333  -0.4444444   0.0000000), wk =   0.0020576
        k(  356) = (  -0.3333333  -0.4444444   0.1203208), wk =   0.0020576
        k(  357) = (  -0.3333333  -0.4444444   0.2406417), wk =   0.0020576
        k(  358) = (  -0.3333333  -0.4444444  -0.3609625), wk =   0.0020576
        k(  359) = (  -0.3333333  -0.4444444  -0.2406417), wk =   0.0020576
        k(  360) = (  -0.3333333  -0.4444444  -0.1203208), wk =   0.0020576
        k(  361) = (  -0.3333333  -0.3333333   0.0000000), wk =   0.0020576
        k(  362) = (  -0.3333333  -0.3333333   0.1203208), wk =   0.0020576
        k(  363) = (  -0.3333333  -0.3333333   0.2406417), wk =   0.0020576
        k(  364) = (  -0.3333333  -0.3333333  -0.3609625), wk =   0.0020576
        k(  365) = (  -0.3333333  -0.3333333  -0.2406417), wk =   0.0020576
        k(  366) = (  -0.3333333  -0.3333333  -0.1203208), wk =   0.0020576
        k(  367) = (  -0.3333333  -0.2222222   0.0000000), wk =   0.0020576
        k(  368) = (  -0.3333333  -0.2222222   0.1203208), wk =   0.0020576
        k(  369) = (  -0.3333333  -0.2222222   0.2406417), wk =   0.0020576
        k(  370) = (  -0.3333333  -0.2222222  -0.3609625), wk =   0.0020576
        k(  371) = (  -0.3333333  -0.2222222  -0.2406417), wk =   0.0020576
        k(  372) = (  -0.3333333  -0.2222222  -0.1203208), wk =   0.0020576
        k(  373) = (  -0.3333333  -0.1111111   0.0000000), wk =   0.0020576
        k(  374) = (  -0.3333333  -0.1111111   0.1203208), wk =   0.0020576
        k(  375) = (  -0.3333333  -0.1111111   0.2406417), wk =   0.0020576
        k(  376) = (  -0.3333333  -0.1111111  -0.3609625), wk =   0.0020576
        k(  377) = (  -0.3333333  -0.1111111  -0.2406417), wk =   0.0020576
        k(  378) = (  -0.3333333  -0.1111111  -0.1203208), wk =   0.0020576
        k(  379) = (  -0.2222222   0.0000000   0.0000000), wk =   0.0020576
        k(  380) = (  -0.2222222   0.0000000   0.1203208), wk =   0.0020576
        k(  381) = (  -0.2222222   0.0000000   0.2406417), wk =   0.0020576
        k(  382) = (  -0.2222222   0.0000000  -0.3609625), wk =   0.0020576
        k(  383) = (  -0.2222222   0.0000000  -0.2406417), wk =   0.0020576
        k(  384) = (  -0.2222222   0.0000000  -0.1203208), wk =   0.0020576
        k(  385) = (  -0.2222222   0.1111111   0.0000000), wk =   0.0020576
        k(  386) = (  -0.2222222   0.1111111   0.1203208), wk =   0.0020576
        k(  387) = (  -0.2222222   0.1111111   0.2406417), wk =   0.0020576
        k(  388) = (  -0.2222222   0.1111111  -0.3609625), wk =   0.0020576
        k(  389) = (  -0.2222222   0.1111111  -0.2406417), wk =   0.0020576
        k(  390) = (  -0.2222222   0.1111111  -0.1203208), wk =   0.0020576
        k(  391) = (  -0.2222222   0.2222222   0.0000000), wk =   0.0020576
        k(  392) = (  -0.2222222   0.2222222   0.1203208), wk =   0.0020576
        k(  393) = (  -0.2222222   0.2222222   0.2406417), wk =   0.0020576
        k(  394) = (  -0.2222222   0.2222222  -0.3609625), wk =   0.0020576
        k(  395) = (  -0.2222222   0.2222222  -0.2406417), wk =   0.0020576
        k(  396) = (  -0.2222222   0.2222222  -0.1203208), wk =   0.0020576
        k(  397) = (  -0.2222222   0.3333333   0.0000000), wk =   0.0020576
        k(  398) = (  -0.2222222   0.3333333   0.1203208), wk =   0.0020576
        k(  399) = (  -0.2222222   0.3333333   0.2406417), wk =   0.0020576
        k(  400) = (  -0.2222222   0.3333333  -0.3609625), wk =   0.0020576
        k(  401) = (  -0.2222222   0.3333333  -0.2406417), wk =   0.0020576
        k(  402) = (  -0.2222222   0.3333333  -0.1203208), wk =   0.0020576
        k(  403) = (  -0.2222222   0.4444444   0.0000000), wk =   0.0020576
        k(  404) = (  -0.2222222   0.4444444   0.1203208), wk =   0.0020576
        k(  405) = (  -0.2222222   0.4444444   0.2406417), wk =   0.0020576
        k(  406) = (  -0.2222222   0.4444444  -0.3609625), wk =   0.0020576
        k(  407) = (  -0.2222222   0.4444444  -0.2406417), wk =   0.0020576
        k(  408) = (  -0.2222222   0.4444444  -0.1203208), wk =   0.0020576
        k(  409) = (  -0.2222222  -0.4444444   0.0000000), wk =   0.0020576
        k(  410) = (  -0.2222222  -0.4444444   0.1203208), wk =   0.0020576
        k(  411) = (  -0.2222222  -0.4444444   0.2406417), wk =   0.0020576
        k(  412) = (  -0.2222222  -0.4444444  -0.3609625), wk =   0.0020576
        k(  413) = (  -0.2222222  -0.4444444  -0.2406417), wk =   0.0020576
        k(  414) = (  -0.2222222  -0.4444444  -0.1203208), wk =   0.0020576
        k(  415) = (  -0.2222222  -0.3333333   0.0000000), wk =   0.0020576
        k(  416) = (  -0.2222222  -0.3333333   0.1203208), wk =   0.0020576
        k(  417) = (  -0.2222222  -0.3333333   0.2406417), wk =   0.0020576
        k(  418) = (  -0.2222222  -0.3333333  -0.3609625), wk =   0.0020576
        k(  419) = (  -0.2222222  -0.3333333  -0.2406417), wk =   0.0020576
        k(  420) = (  -0.2222222  -0.3333333  -0.1203208), wk =   0.0020576
        k(  421) = (  -0.2222222  -0.2222222   0.0000000), wk =   0.0020576
        k(  422) = (  -0.2222222  -0.2222222   0.1203208), wk =   0.0020576
        k(  423) = (  -0.2222222  -0.2222222   0.2406417), wk =   0.0020576
        k(  424) = (  -0.2222222  -0.2222222  -0.3609625), wk =   0.0020576
        k(  425) = (  -0.2222222  -0.2222222  -0.2406417), wk =   0.0020576
        k(  426) = (  -0.2222222  -0.2222222  -0.1203208), wk =   0.0020576
        k(  427) = (  -0.2222222  -0.1111111   0.0000000), wk =   0.0020576
        k(  428) = (  -0.2222222  -0.1111111   0.1203208), wk =   0.0020576
        k(  429) = (  -0.2222222  -0.1111111   0.2406417), wk =   0.0020576
        k(  430) = (  -0.2222222  -0.1111111  -0.3609625), wk =   0.0020576
        k(  431) = (  -0.2222222  -0.1111111  -0.2406417), wk =   0.0020576
        k(  432) = (  -0.2222222  -0.1111111  -0.1203208), wk =   0.0020576
        k(  433) = (  -0.1111111   0.0000000   0.0000000), wk =   0.0020576
        k(  434) = (  -0.1111111   0.0000000   0.1203208), wk =   0.0020576
        k(  435) = (  -0.1111111   0.0000000   0.2406417), wk =   0.0020576
        k(  436) = (  -0.1111111   0.0000000  -0.3609625), wk =   0.0020576
        k(  437) = (  -0.1111111   0.0000000  -0.2406417), wk =   0.0020576
        k(  438) = (  -0.1111111   0.0000000  -0.1203208), wk =   0.0020576
        k(  439) = (  -0.1111111   0.1111111   0.0000000), wk =   0.0020576
        k(  440) = (  -0.1111111   0.1111111   0.1203208), wk =   0.0020576
        k(  441) = (  -0.1111111   0.1111111   0.2406417), wk =   0.0020576
        k(  442) = (  -0.1111111   0.1111111  -0.3609625), wk =   0.0020576
        k(  443) = (  -0.1111111   0.1111111  -0.2406417), wk =   0.0020576
        k(  444) = (  -0.1111111   0.1111111  -0.1203208), wk =   0.0020576
        k(  445) = (  -0.1111111   0.2222222   0.0000000), wk =   0.0020576
        k(  446) = (  -0.1111111   0.2222222   0.1203208), wk =   0.0020576
        k(  447) = (  -0.1111111   0.2222222   0.2406417), wk =   0.0020576
        k(  448) = (  -0.1111111   0.2222222  -0.3609625), wk =   0.0020576
        k(  449) = (  -0.1111111   0.2222222  -0.2406417), wk =   0.0020576
        k(  450) = (  -0.1111111   0.2222222  -0.1203208), wk =   0.0020576
        k(  451) = (  -0.1111111   0.3333333   0.0000000), wk =   0.0020576
        k(  452) = (  -0.1111111   0.3333333   0.1203208), wk =   0.0020576
        k(  453) = (  -0.1111111   0.3333333   0.2406417), wk =   0.0020576
        k(  454) = (  -0.1111111   0.3333333  -0.3609625), wk =   0.0020576
        k(  455) = (  -0.1111111   0.3333333  -0.2406417), wk =   0.0020576
        k(  456) = (  -0.1111111   0.3333333  -0.1203208), wk =   0.0020576
        k(  457) = (  -0.1111111   0.4444444   0.0000000), wk =   0.0020576
        k(  458) = (  -0.1111111   0.4444444   0.1203208), wk =   0.0020576
        k(  459) = (  -0.1111111   0.4444444   0.2406417), wk =   0.0020576
        k(  460) = (  -0.1111111   0.4444444  -0.3609625), wk =   0.0020576
        k(  461) = (  -0.1111111   0.4444444  -0.2406417), wk =   0.0020576
        k(  462) = (  -0.1111111   0.4444444  -0.1203208), wk =   0.0020576
        k(  463) = (  -0.1111111  -0.4444444   0.0000000), wk =   0.0020576
        k(  464) = (  -0.1111111  -0.4444444   0.1203208), wk =   0.0020576
        k(  465) = (  -0.1111111  -0.4444444   0.2406417), wk =   0.0020576
        k(  466) = (  -0.1111111  -0.4444444  -0.3609625), wk =   0.0020576
        k(  467) = (  -0.1111111  -0.4444444  -0.2406417), wk =   0.0020576
        k(  468) = (  -0.1111111  -0.4444444  -0.1203208), wk =   0.0020576
        k(  469) = (  -0.1111111  -0.3333333   0.0000000), wk =   0.0020576
        k(  470) = (  -0.1111111  -0.3333333   0.1203208), wk =   0.0020576
        k(  471) = (  -0.1111111  -0.3333333   0.2406417), wk =   0.0020576
        k(  472) = (  -0.1111111  -0.3333333  -0.3609625), wk =   0.0020576
        k(  473) = (  -0.1111111  -0.3333333  -0.2406417), wk =   0.0020576
        k(  474) = (  -0.1111111  -0.3333333  -0.1203208), wk =   0.0020576
        k(  475) = (  -0.1111111  -0.2222222   0.0000000), wk =   0.0020576
        k(  476) = (  -0.1111111  -0.2222222   0.1203208), wk =   0.0020576
        k(  477) = (  -0.1111111  -0.2222222   0.2406417), wk =   0.0020576
        k(  478) = (  -0.1111111  -0.2222222  -0.3609625), wk =   0.0020576
        k(  479) = (  -0.1111111  -0.2222222  -0.2406417), wk =   0.0020576
        k(  480) = (  -0.1111111  -0.2222222  -0.1203208), wk =   0.0020576
        k(  481) = (  -0.1111111  -0.1111111   0.0000000), wk =   0.0020576
        k(  482) = (  -0.1111111  -0.1111111   0.1203208), wk =   0.0020576
        k(  483) = (  -0.1111111  -0.1111111   0.2406417), wk =   0.0020576
        k(  484) = (  -0.1111111  -0.1111111  -0.3609625), wk =   0.0020576
        k(  485) = (  -0.1111111  -0.1111111  -0.2406417), wk =   0.0020576
        k(  486) = (  -0.1111111  -0.1111111  -0.1203208), wk =   0.0020576

                       cryst. coord.
        k(    1) = (   0.0000000   0.0000000   0.0000000), wk =   0.0020576
        k(    2) = (   0.0000000   0.0000000   0.1666667), wk =   0.0020576
        k(    3) = (   0.0000000   0.0000000   0.3333333), wk =   0.0020576
        k(    4) = (   0.0000000   0.0000000  -0.5000000), wk =   0.0020576
        k(    5) = (   0.0000000   0.0000000  -0.3333333), wk =   0.0020576
        k(    6) = (   0.0000000   0.0000000  -0.1666667), wk =   0.0020576
        k(    7) = (   0.0000000   0.1111111   0.0000000), wk =   0.0020576
        k(    8) = (   0.0000000   0.1111111   0.1666667), wk =   0.0020576
        k(    9) = (   0.0000000   0.1111111   0.3333333), wk =   0.0020576
        k(   10) = (   0.0000000   0.1111111  -0.5000000), wk =   0.0020576
        k(   11) = (   0.0000000   0.1111111  -0.3333333), wk =   0.0020576
        k(   12) = (   0.0000000   0.1111111  -0.1666667), wk =   0.0020576
        k(   13) = (   0.0000000   0.2222222   0.0000000), wk =   0.0020576
        k(   14) = (   0.0000000   0.2222222   0.1666667), wk =   0.0020576
        k(   15) = (   0.0000000   0.2222222   0.3333333), wk =   0.0020576
        k(   16) = (   0.0000000   0.2222222  -0.5000000), wk =   0.0020576
        k(   17) = (   0.0000000   0.2222222  -0.3333333), wk =   0.0020576
        k(   18) = (   0.0000000   0.2222222  -0.1666667), wk =   0.0020576
        k(   19) = (   0.0000000   0.3333333   0.0000000), wk =   0.0020576
        k(   20) = (   0.0000000   0.3333333   0.1666667), wk =   0.0020576
        k(   21) = (   0.0000000   0.3333333   0.3333333), wk =   0.0020576
        k(   22) = (   0.0000000   0.3333333  -0.5000000), wk =   0.0020576
        k(   23) = (   0.0000000   0.3333333  -0.3333333), wk =   0.0020576
        k(   24) = (   0.0000000   0.3333333  -0.1666667), wk =   0.0020576
        k(   25) = (   0.0000000   0.4444444   0.0000000), wk =   0.0020576
        k(   26) = (   0.0000000   0.4444444   0.1666667), wk =   0.0020576
        k(   27) = (   0.0000000   0.4444444   0.3333333), wk =   0.0020576
        k(   28) = (   0.0000000   0.4444444  -0.5000000), wk =   0.0020576
        k(   29) = (   0.0000000   0.4444444  -0.3333333), wk =   0.0020576
        k(   30) = (   0.0000000   0.4444444  -0.1666667), wk =   0.0020576
        k(   31) = (   0.0000000  -0.4444444   0.0000000), wk =   0.0020576
        k(   32) = (   0.0000000  -0.4444444   0.1666667), wk =   0.0020576
        k(   33) = (   0.0000000  -0.4444444   0.3333333), wk =   0.0020576
        k(   34) = (   0.0000000  -0.4444444  -0.5000000), wk =   0.0020576
        k(   35) = (   0.0000000  -0.4444444  -0.3333333), wk =   0.0020576
        k(   36) = (   0.0000000  -0.4444444  -0.1666667), wk =   0.0020576
        k(   37) = (   0.0000000  -0.3333333   0.0000000), wk =   0.0020576
        k(   38) = (   0.0000000  -0.3333333   0.1666667), wk =   0.0020576
        k(   39) = (   0.0000000  -0.3333333   0.3333333), wk =   0.0020576
        k(   40) = (   0.0000000  -0.3333333  -0.5000000), wk =   0.0020576
        k(   41) = (   0.0000000  -0.3333333  -0.3333333), wk =   0.0020576
        k(   42) = (   0.0000000  -0.3333333  -0.1666667), wk =   0.0020576
        k(   43) = (   0.0000000  -0.2222222   0.0000000), wk =   0.0020576
        k(   44) = (   0.0000000  -0.2222222   0.1666667), wk =   0.0020576
        k(   45) = (   0.0000000  -0.2222222   0.3333333), wk =   0.0020576
        k(   46) = (   0.0000000  -0.2222222  -0.5000000), wk =   0.0020576
        k(   47) = (   0.0000000  -0.2222222  -0.3333333), wk =   0.0020576
        k(   48) = (   0.0000000  -0.2222222  -0.1666667), wk =   0.0020576
        k(   49) = (   0.0000000  -0.1111111   0.0000000), wk =   0.0020576
        k(   50) = (   0.0000000  -0.1111111   0.1666667), wk =   0.0020576
        k(   51) = (   0.0000000  -0.1111111   0.3333333), wk =   0.0020576
        k(   52) = (   0.0000000  -0.1111111  -0.5000000), wk =   0.0020576
        k(   53) = (   0.0000000  -0.1111111  -0.3333333), wk =   0.0020576
        k(   54) = (   0.0000000  -0.1111111  -0.1666667), wk =   0.0020576
        k(   55) = (   0.1111111   0.0000000   0.0000000), wk =   0.0020576
        k(   56) = (   0.1111111   0.0000000   0.1666667), wk =   0.0020576
        k(   57) = (   0.1111111   0.0000000   0.3333333), wk =   0.0020576
        k(   58) = (   0.1111111   0.0000000  -0.5000000), wk =   0.0020576
        k(   59) = (   0.1111111   0.0000000  -0.3333333), wk =   0.0020576
        k(   60) = (   0.1111111   0.0000000  -0.1666667), wk =   0.0020576
        k(   61) = (   0.1111111   0.1111111   0.0000000), wk =   0.0020576
        k(   62) = (   0.1111111   0.1111111   0.1666667), wk =   0.0020576
        k(   63) = (   0.1111111   0.1111111   0.3333333), wk =   0.0020576
        k(   64) = (   0.1111111   0.1111111  -0.5000000), wk =   0.0020576
        k(   65) = (   0.1111111   0.1111111  -0.3333333), wk =   0.0020576
        k(   66) = (   0.1111111   0.1111111  -0.1666667), wk =   0.0020576
        k(   67) = (   0.1111111   0.2222222   0.0000000), wk =   0.0020576
        k(   68) = (   0.1111111   0.2222222   0.1666667), wk =   0.0020576
        k(   69) = (   0.1111111   0.2222222   0.3333333), wk =   0.0020576
        k(   70) = (   0.1111111   0.2222222  -0.5000000), wk =   0.0020576
        k(   71) = (   0.1111111   0.2222222  -0.3333333), wk =   0.0020576
        k(   72) = (   0.1111111   0.2222222  -0.1666667), wk =   0.0020576
        k(   73) = (   0.1111111   0.3333333   0.0000000), wk =   0.0020576
        k(   74) = (   0.1111111   0.3333333   0.1666667), wk =   0.0020576
        k(   75) = (   0.1111111   0.3333333   0.3333333), wk =   0.0020576
        k(   76) = (   0.1111111   0.3333333  -0.5000000), wk =   0.0020576
        k(   77) = (   0.1111111   0.3333333  -0.3333333), wk =   0.0020576
        k(   78) = (   0.1111111   0.3333333  -0.1666667), wk =   0.0020576
        k(   79) = (   0.1111111   0.4444444   0.0000000), wk =   0.0020576
        k(   80) = (   0.1111111   0.4444444   0.1666667), wk =   0.0020576
        k(   81) = (   0.1111111   0.4444444   0.3333333), wk =   0.0020576
        k(   82) = (   0.1111111   0.4444444  -0.5000000), wk =   0.0020576
        k(   83) = (   0.1111111   0.4444444  -0.3333333), wk =   0.0020576
        k(   84) = (   0.1111111   0.4444444  -0.1666667), wk =   0.0020576
        k(   85) = (   0.1111111  -0.4444444   0.0000000), wk =   0.0020576
        k(   86) = (   0.1111111  -0.4444444   0.1666667), wk =   0.0020576
        k(   87) = (   0.1111111  -0.4444444   0.3333333), wk =   0.0020576
        k(   88) = (   0.1111111  -0.4444444  -0.5000000), wk =   0.0020576
        k(   89) = (   0.1111111  -0.4444444  -0.3333333), wk =   0.0020576
        k(   90) = (   0.1111111  -0.4444444  -0.1666667), wk =   0.0020576
        k(   91) = (   0.1111111  -0.3333333   0.0000000), wk =   0.0020576
        k(   92) = (   0.1111111  -0.3333333   0.1666667), wk =   0.0020576
        k(   93) = (   0.1111111  -0.3333333   0.3333333), wk =   0.0020576
        k(   94) = (   0.1111111  -0.3333333  -0.5000000), wk =   0.0020576
        k(   95) = (   0.1111111  -0.3333333  -0.3333333), wk =   0.0020576
        k(   96) = (   0.1111111  -0.3333333  -0.1666667), wk =   0.0020576
        k(   97) = (   0.1111111  -0.2222222   0.0000000), wk =   0.0020576
        k(   98) = (   0.1111111  -0.2222222   0.1666667), wk =   0.0020576
        k(   99) = (   0.1111111  -0.2222222   0.3333333), wk =   0.0020576
        k(  100) = (   0.1111111  -0.2222222  -0.5000000), wk =   0.0020576
        k(  101) = (   0.1111111  -0.2222222  -0.3333333), wk =   0.0020576
        k(  102) = (   0.1111111  -0.2222222  -0.1666667), wk =   0.0020576
        k(  103) = (   0.1111111  -0.1111111   0.0000000), wk =   0.0020576
        k(  104) = (   0.1111111  -0.1111111   0.1666667), wk =   0.0020576
        k(  105) = (   0.1111111  -0.1111111   0.3333333), wk =   0.0020576
        k(  106) = (   0.1111111  -0.1111111  -0.5000000), wk =   0.0020576
        k(  107) = (   0.1111111  -0.1111111  -0.3333333), wk =   0.0020576
        k(  108) = (   0.1111111  -0.1111111  -0.1666667), wk =   0.0020576
        k(  109) = (   0.2222222   0.0000000   0.0000000), wk =   0.0020576
        k(  110) = (   0.2222222   0.0000000   0.1666667), wk =   0.0020576
        k(  111) = (   0.2222222   0.0000000   0.3333333), wk =   0.0020576
        k(  112) = (   0.2222222   0.0000000  -0.5000000), wk =   0.0020576
        k(  113) = (   0.2222222   0.0000000  -0.3333333), wk =   0.0020576
        k(  114) = (   0.2222222   0.0000000  -0.1666667), wk =   0.0020576
        k(  115) = (   0.2222222   0.1111111   0.0000000), wk =   0.0020576
        k(  116) = (   0.2222222   0.1111111   0.1666667), wk =   0.0020576
        k(  117) = (   0.2222222   0.1111111   0.3333333), wk =   0.0020576
        k(  118) = (   0.2222222   0.1111111  -0.5000000), wk =   0.0020576
        k(  119) = (   0.2222222   0.1111111  -0.3333333), wk =   0.0020576
        k(  120) = (   0.2222222   0.1111111  -0.1666667), wk =   0.0020576
        k(  121) = (   0.2222222   0.2222222   0.0000000), wk =   0.0020576
        k(  122) = (   0.2222222   0.2222222   0.1666667), wk =   0.0020576
        k(  123) = (   0.2222222   0.2222222   0.3333333), wk =   0.0020576
        k(  124) = (   0.2222222   0.2222222  -0.5000000), wk =   0.0020576
        k(  125) = (   0.2222222   0.2222222  -0.3333333), wk =   0.0020576
        k(  126) = (   0.2222222   0.2222222  -0.1666667), wk =   0.0020576
        k(  127) = (   0.2222222   0.3333333   0.0000000), wk =   0.0020576
        k(  128) = (   0.2222222   0.3333333   0.1666667), wk =   0.0020576
        k(  129) = (   0.2222222   0.3333333   0.3333333), wk =   0.0020576
        k(  130) = (   0.2222222   0.3333333  -0.5000000), wk =   0.0020576
        k(  131) = (   0.2222222   0.3333333  -0.3333333), wk =   0.0020576
        k(  132) = (   0.2222222   0.3333333  -0.1666667), wk =   0.0020576
        k(  133) = (   0.2222222   0.4444444   0.0000000), wk =   0.0020576
        k(  134) = (   0.2222222   0.4444444   0.1666667), wk =   0.0020576
        k(  135) = (   0.2222222   0.4444444   0.3333333), wk =   0.0020576
        k(  136) = (   0.2222222   0.4444444  -0.5000000), wk =   0.0020576
        k(  137) = (   0.2222222   0.4444444  -0.3333333), wk =   0.0020576
        k(  138) = (   0.2222222   0.4444444  -0.1666667), wk =   0.0020576
        k(  139) = (   0.2222222  -0.4444444   0.0000000), wk =   0.0020576
        k(  140) = (   0.2222222  -0.4444444   0.1666667), wk =   0.0020576
        k(  141) = (   0.2222222  -0.4444444   0.3333333), wk =   0.0020576
        k(  142) = (   0.2222222  -0.4444444  -0.5000000), wk =   0.0020576
        k(  143) = (   0.2222222  -0.4444444  -0.3333333), wk =   0.0020576
        k(  144) = (   0.2222222  -0.4444444  -0.1666667), wk =   0.0020576
        k(  145) = (   0.2222222  -0.3333333   0.0000000), wk =   0.0020576
        k(  146) = (   0.2222222  -0.3333333   0.1666667), wk =   0.0020576
        k(  147) = (   0.2222222  -0.3333333   0.3333333), wk =   0.0020576
        k(  148) = (   0.2222222  -0.3333333  -0.5000000), wk =   0.0020576
        k(  149) = (   0.2222222  -0.3333333  -0.3333333), wk =   0.0020576
        k(  150) = (   0.2222222  -0.3333333  -0.1666667), wk =   0.0020576
        k(  151) = (   0.2222222  -0.2222222   0.0000000), wk =   0.0020576
        k(  152) = (   0.2222222  -0.2222222   0.1666667), wk =   0.0020576
        k(  153) = (   0.2222222  -0.2222222   0.3333333), wk =   0.0020576
        k(  154) = (   0.2222222  -0.2222222  -0.5000000), wk =   0.0020576
        k(  155) = (   0.2222222  -0.2222222  -0.3333333), wk =   0.0020576
        k(  156) = (   0.2222222  -0.2222222  -0.1666667), wk =   0.0020576
        k(  157) = (   0.2222222  -0.1111111   0.0000000), wk =   0.0020576
        k(  158) = (   0.2222222  -0.1111111   0.1666667), wk =   0.0020576
        k(  159) = (   0.2222222  -0.1111111   0.3333333), wk =   0.0020576
        k(  160) = (   0.2222222  -0.1111111  -0.5000000), wk =   0.0020576
        k(  161) = (   0.2222222  -0.1111111  -0.3333333), wk =   0.0020576
        k(  162) = (   0.2222222  -0.1111111  -0.1666667), wk =   0.0020576
        k(  163) = (   0.3333333   0.0000000   0.0000000), wk =   0.0020576
        k(  164) = (   0.3333333   0.0000000   0.1666667), wk =   0.0020576
        k(  165) = (   0.3333333   0.0000000   0.3333333), wk =   0.0020576
        k(  166) = (   0.3333333   0.0000000  -0.5000000), wk =   0.0020576
        k(  167) = (   0.3333333   0.0000000  -0.3333333), wk =   0.0020576
        k(  168) = (   0.3333333   0.0000000  -0.1666667), wk =   0.0020576
        k(  169) = (   0.3333333   0.1111111   0.0000000), wk =   0.0020576
        k(  170) = (   0.3333333   0.1111111   0.1666667), wk =   0.0020576
        k(  171) = (   0.3333333   0.1111111   0.3333333), wk =   0.0020576
        k(  172) = (   0.3333333   0.1111111  -0.5000000), wk =   0.0020576
        k(  173) = (   0.3333333   0.1111111  -0.3333333), wk =   0.0020576
        k(  174) = (   0.3333333   0.1111111  -0.1666667), wk =   0.0020576
        k(  175) = (   0.3333333   0.2222222   0.0000000), wk =   0.0020576
        k(  176) = (   0.3333333   0.2222222   0.1666667), wk =   0.0020576
        k(  177) = (   0.3333333   0.2222222   0.3333333), wk =   0.0020576
        k(  178) = (   0.3333333   0.2222222  -0.5000000), wk =   0.0020576
        k(  179) = (   0.3333333   0.2222222  -0.3333333), wk =   0.0020576
        k(  180) = (   0.3333333   0.2222222  -0.1666667), wk =   0.0020576
        k(  181) = (   0.3333333   0.3333333   0.0000000), wk =   0.0020576
        k(  182) = (   0.3333333   0.3333333   0.1666667), wk =   0.0020576
        k(  183) = (   0.3333333   0.3333333   0.3333333), wk =   0.0020576
        k(  184) = (   0.3333333   0.3333333  -0.5000000), wk =   0.0020576
        k(  185) = (   0.3333333   0.3333333  -0.3333333), wk =   0.0020576
        k(  186) = (   0.3333333   0.3333333  -0.1666667), wk =   0.0020576
        k(  187) = (   0.3333333   0.4444444   0.0000000), wk =   0.0020576
        k(  188) = (   0.3333333   0.4444444   0.1666667), wk =   0.0020576
        k(  189) = (   0.3333333   0.4444444   0.3333333), wk =   0.0020576
        k(  190) = (   0.3333333   0.4444444  -0.5000000), wk =   0.0020576
        k(  191) = (   0.3333333   0.4444444  -0.3333333), wk =   0.0020576
        k(  192) = (   0.3333333   0.4444444  -0.1666667), wk =   0.0020576
        k(  193) = (   0.3333333  -0.4444444   0.0000000), wk =   0.0020576
        k(  194) = (   0.3333333  -0.4444444   0.1666667), wk =   0.0020576
        k(  195) = (   0.3333333  -0.4444444   0.3333333), wk =   0.0020576
        k(  196) = (   0.3333333  -0.4444444  -0.5000000), wk =   0.0020576
        k(  197) = (   0.3333333  -0.4444444  -0.3333333), wk =   0.0020576
        k(  198) = (   0.3333333  -0.4444444  -0.1666667), wk =   0.0020576
        k(  199) = (   0.3333333  -0.3333333   0.0000000), wk =   0.0020576
        k(  200) = (   0.3333333  -0.3333333   0.1666667), wk =   0.0020576
        k(  201) = (   0.3333333  -0.3333333   0.3333333), wk =   0.0020576
        k(  202) = (   0.3333333  -0.3333333  -0.5000000), wk =   0.0020576
        k(  203) = (   0.3333333  -0.3333333  -0.3333333), wk =   0.0020576
        k(  204) = (   0.3333333  -0.3333333  -0.1666667), wk =   0.0020576
        k(  205) = (   0.3333333  -0.2222222   0.0000000), wk =   0.0020576
        k(  206) = (   0.3333333  -0.2222222   0.1666667), wk =   0.0020576
        k(  207) = (   0.3333333  -0.2222222   0.3333333), wk =   0.0020576
        k(  208) = (   0.3333333  -0.2222222  -0.5000000), wk =   0.0020576
        k(  209) = (   0.3333333  -0.2222222  -0.3333333), wk =   0.0020576
        k(  210) = (   0.3333333  -0.2222222  -0.1666667), wk =   0.0020576
        k(  211) = (   0.3333333  -0.1111111   0.0000000), wk =   0.0020576
        k(  212) = (   0.3333333  -0.1111111   0.1666667), wk =   0.0020576
        k(  213) = (   0.3333333  -0.1111111   0.3333333), wk =   0.0020576
        k(  214) = (   0.3333333  -0.1111111  -0.5000000), wk =   0.0020576
        k(  215) = (   0.3333333  -0.1111111  -0.3333333), wk =   0.0020576
        k(  216) = (   0.3333333  -0.1111111  -0.1666667), wk =   0.0020576
        k(  217) = (   0.4444444   0.0000000   0.0000000), wk =   0.0020576
        k(  218) = (   0.4444444   0.0000000   0.1666667), wk =   0.0020576
        k(  219) = (   0.4444444   0.0000000   0.3333333), wk =   0.0020576
        k(  220) = (   0.4444444   0.0000000  -0.5000000), wk =   0.0020576
        k(  221) = (   0.4444444   0.0000000  -0.3333333), wk =   0.0020576
        k(  222) = (   0.4444444   0.0000000  -0.1666667), wk =   0.0020576
        k(  223) = (   0.4444444   0.1111111   0.0000000), wk =   0.0020576
        k(  224) = (   0.4444444   0.1111111   0.1666667), wk =   0.0020576
        k(  225) = (   0.4444444   0.1111111   0.3333333), wk =   0.0020576
        k(  226) = (   0.4444444   0.1111111  -0.5000000), wk =   0.0020576
        k(  227) = (   0.4444444   0.1111111  -0.3333333), wk =   0.0020576
        k(  228) = (   0.4444444   0.1111111  -0.1666667), wk =   0.0020576
        k(  229) = (   0.4444444   0.2222222   0.0000000), wk =   0.0020576
        k(  230) = (   0.4444444   0.2222222   0.1666667), wk =   0.0020576
        k(  231) = (   0.4444444   0.2222222   0.3333333), wk =   0.0020576
        k(  232) = (   0.4444444   0.2222222  -0.5000000), wk =   0.0020576
        k(  233) = (   0.4444444   0.2222222  -0.3333333), wk =   0.0020576
        k(  234) = (   0.4444444   0.2222222  -0.1666667), wk =   0.0020576
        k(  235) = (   0.4444444   0.3333333   0.0000000), wk =   0.0020576
        k(  236) = (   0.4444444   0.3333333   0.1666667), wk =   0.0020576
        k(  237) = (   0.4444444   0.3333333   0.3333333), wk =   0.0020576
        k(  238) = (   0.4444444   0.3333333  -0.5000000), wk =   0.0020576
        k(  239) = (   0.4444444   0.3333333  -0.3333333), wk =   0.0020576
        k(  240) = (   0.4444444   0.3333333  -0.1666667), wk =   0.0020576
        k(  241) = (   0.4444444   0.4444444   0.0000000), wk =   0.0020576
        k(  242) = (   0.4444444   0.4444444   0.1666667), wk =   0.0020576
        k(  243) = (   0.4444444   0.4444444   0.3333333), wk =   0.0020576
        k(  244) = (   0.4444444   0.4444444  -0.5000000), wk =   0.0020576
        k(  245) = (   0.4444444   0.4444444  -0.3333333), wk =   0.0020576
        k(  246) = (   0.4444444   0.4444444  -0.1666667), wk =   0.0020576
        k(  247) = (   0.4444444  -0.4444444   0.0000000), wk =   0.0020576
        k(  248) = (   0.4444444  -0.4444444   0.1666667), wk =   0.0020576
        k(  249) = (   0.4444444  -0.4444444   0.3333333), wk =   0.0020576
        k(  250) = (   0.4444444  -0.4444444  -0.5000000), wk =   0.0020576
        k(  251) = (   0.4444444  -0.4444444  -0.3333333), wk =   0.0020576
        k(  252) = (   0.4444444  -0.4444444  -0.1666667), wk =   0.0020576
        k(  253) = (   0.4444444  -0.3333333   0.0000000), wk =   0.0020576
        k(  254) = (   0.4444444  -0.3333333   0.1666667), wk =   0.0020576
        k(  255) = (   0.4444444  -0.3333333   0.3333333), wk =   0.0020576
        k(  256) = (   0.4444444  -0.3333333  -0.5000000), wk =   0.0020576
        k(  257) = (   0.4444444  -0.3333333  -0.3333333), wk =   0.0020576
        k(  258) = (   0.4444444  -0.3333333  -0.1666667), wk =   0.0020576
        k(  259) = (   0.4444444  -0.2222222   0.0000000), wk =   0.0020576
        k(  260) = (   0.4444444  -0.2222222   0.1666667), wk =   0.0020576
        k(  261) = (   0.4444444  -0.2222222   0.3333333), wk =   0.0020576
        k(  262) = (   0.4444444  -0.2222222  -0.5000000), wk =   0.0020576
        k(  263) = (   0.4444444  -0.2222222  -0.3333333), wk =   0.0020576
        k(  264) = (   0.4444444  -0.2222222  -0.1666667), wk =   0.0020576
        k(  265) = (   0.4444444  -0.1111111   0.0000000), wk =   0.0020576
        k(  266) = (   0.4444444  -0.1111111   0.1666667), wk =   0.0020576
        k(  267) = (   0.4444444  -0.1111111   0.3333333), wk =   0.0020576
        k(  268) = (   0.4444444  -0.1111111  -0.5000000), wk =   0.0020576
        k(  269) = (   0.4444444  -0.1111111  -0.3333333), wk =   0.0020576
        k(  270) = (   0.4444444  -0.1111111  -0.1666667), wk =   0.0020576
        k(  271) = (  -0.4444444   0.0000000   0.0000000), wk =   0.0020576
        k(  272) = (  -0.4444444   0.0000000   0.1666667), wk =   0.0020576
        k(  273) = (  -0.4444444   0.0000000   0.3333333), wk =   0.0020576
        k(  274) = (  -0.4444444   0.0000000  -0.5000000), wk =   0.0020576
        k(  275) = (  -0.4444444   0.0000000  -0.3333333), wk =   0.0020576
        k(  276) = (  -0.4444444   0.0000000  -0.1666667), wk =   0.0020576
        k(  277) = (  -0.4444444   0.1111111   0.0000000), wk =   0.0020576
        k(  278) = (  -0.4444444   0.1111111   0.1666667), wk =   0.0020576
        k(  279) = (  -0.4444444   0.1111111   0.3333333), wk =   0.0020576
        k(  280) = (  -0.4444444   0.1111111  -0.5000000), wk =   0.0020576
        k(  281) = (  -0.4444444   0.1111111  -0.3333333), wk =   0.0020576
        k(  282) = (  -0.4444444   0.1111111  -0.1666667), wk =   0.0020576
        k(  283) = (  -0.4444444   0.2222222   0.0000000), wk =   0.0020576
        k(  284) = (  -0.4444444   0.2222222   0.1666667), wk =   0.0020576
        k(  285) = (  -0.4444444   0.2222222   0.3333333), wk =   0.0020576
        k(  286) = (  -0.4444444   0.2222222  -0.5000000), wk =   0.0020576
        k(  287) = (  -0.4444444   0.2222222  -0.3333333), wk =   0.0020576
        k(  288) = (  -0.4444444   0.2222222  -0.1666667), wk =   0.0020576
        k(  289) = (  -0.4444444   0.3333333   0.0000000), wk =   0.0020576
        k(  290) = (  -0.4444444   0.3333333   0.1666667), wk =   0.0020576
        k(  291) = (  -0.4444444   0.3333333   0.3333333), wk =   0.0020576
        k(  292) = (  -0.4444444   0.3333333  -0.5000000), wk =   0.0020576
        k(  293) = (  -0.4444444   0.3333333  -0.3333333), wk =   0.0020576
        k(  294) = (  -0.4444444   0.3333333  -0.1666667), wk =   0.0020576
        k(  295) = (  -0.4444444   0.4444444   0.0000000), wk =   0.0020576
        k(  296) = (  -0.4444444   0.4444444   0.1666667), wk =   0.0020576
        k(  297) = (  -0.4444444   0.4444444   0.3333333), wk =   0.0020576
        k(  298) = (  -0.4444444   0.4444444  -0.5000000), wk =   0.0020576
        k(  299) = (  -0.4444444   0.4444444  -0.3333333), wk =   0.0020576
        k(  300) = (  -0.4444444   0.4444444  -0.1666667), wk =   0.0020576
        k(  301) = (  -0.4444444  -0.4444444   0.0000000), wk =   0.0020576
        k(  302) = (  -0.4444444  -0.4444444   0.1666667), wk =   0.0020576
        k(  303) = (  -0.4444444  -0.4444444   0.3333333), wk =   0.0020576
        k(  304) = (  -0.4444444  -0.4444444  -0.5000000), wk =   0.0020576
        k(  305) = (  -0.4444444  -0.4444444  -0.3333333), wk =   0.0020576
        k(  306) = (  -0.4444444  -0.4444444  -0.1666667), wk =   0.0020576
        k(  307) = (  -0.4444444  -0.3333333   0.0000000), wk =   0.0020576
        k(  308) = (  -0.4444444  -0.3333333   0.1666667), wk =   0.0020576
        k(  309) = (  -0.4444444  -0.3333333   0.3333333), wk =   0.0020576
        k(  310) = (  -0.4444444  -0.3333333  -0.5000000), wk =   0.0020576
        k(  311) = (  -0.4444444  -0.3333333  -0.3333333), wk =   0.0020576
        k(  312) = (  -0.4444444  -0.3333333  -0.1666667), wk =   0.0020576
        k(  313) = (  -0.4444444  -0.2222222   0.0000000), wk =   0.0020576
        k(  314) = (  -0.4444444  -0.2222222   0.1666667), wk =   0.0020576
        k(  315) = (  -0.4444444  -0.2222222   0.3333333), wk =   0.0020576
        k(  316) = (  -0.4444444  -0.2222222  -0.5000000), wk =   0.0020576
        k(  317) = (  -0.4444444  -0.2222222  -0.3333333), wk =   0.0020576
        k(  318) = (  -0.4444444  -0.2222222  -0.1666667), wk =   0.0020576
        k(  319) = (  -0.4444444  -0.1111111   0.0000000), wk =   0.0020576
        k(  320) = (  -0.4444444  -0.1111111   0.1666667), wk =   0.0020576
        k(  321) = (  -0.4444444  -0.1111111   0.3333333), wk =   0.0020576
        k(  322) = (  -0.4444444  -0.1111111  -0.5000000), wk =   0.0020576
        k(  323) = (  -0.4444444  -0.1111111  -0.3333333), wk =   0.0020576
        k(  324) = (  -0.4444444  -0.1111111  -0.1666667), wk =   0.0020576
        k(  325) = (  -0.3333333   0.0000000   0.0000000), wk =   0.0020576
        k(  326) = (  -0.3333333   0.0000000   0.1666667), wk =   0.0020576
        k(  327) = (  -0.3333333   0.0000000   0.3333333), wk =   0.0020576
        k(  328) = (  -0.3333333   0.0000000  -0.5000000), wk =   0.0020576
        k(  329) = (  -0.3333333   0.0000000  -0.3333333), wk =   0.0020576
        k(  330) = (  -0.3333333   0.0000000  -0.1666667), wk =   0.0020576
        k(  331) = (  -0.3333333   0.1111111   0.0000000), wk =   0.0020576
        k(  332) = (  -0.3333333   0.1111111   0.1666667), wk =   0.0020576
        k(  333) = (  -0.3333333   0.1111111   0.3333333), wk =   0.0020576
        k(  334) = (  -0.3333333   0.1111111  -0.5000000), wk =   0.0020576
        k(  335) = (  -0.3333333   0.1111111  -0.3333333), wk =   0.0020576
        k(  336) = (  -0.3333333   0.1111111  -0.1666667), wk =   0.0020576
        k(  337) = (  -0.3333333   0.2222222   0.0000000), wk =   0.0020576
        k(  338) = (  -0.3333333   0.2222222   0.1666667), wk =   0.0020576
        k(  339) = (  -0.3333333   0.2222222   0.3333333), wk =   0.0020576
        k(  340) = (  -0.3333333   0.2222222  -0.5000000), wk =   0.0020576
        k(  341) = (  -0.3333333   0.2222222  -0.3333333), wk =   0.0020576
        k(  342) = (  -0.3333333   0.2222222  -0.1666667), wk =   0.0020576
        k(  343) = (  -0.3333333   0.3333333   0.0000000), wk =   0.0020576
        k(  344) = (  -0.3333333   0.3333333   0.1666667), wk =   0.0020576
        k(  345) = (  -0.3333333   0.3333333   0.3333333), wk =   0.0020576
        k(  346) = (  -0.3333333   0.3333333  -0.5000000), wk =   0.0020576
        k(  347) = (  -0.3333333   0.3333333  -0.3333333), wk =   0.0020576
        k(  348) = (  -0.3333333   0.3333333  -0.1666667), wk =   0.0020576
        k(  349) = (  -0.3333333   0.4444444   0.0000000), wk =   0.0020576
        k(  350) = (  -0.3333333   0.4444444   0.1666667), wk =   0.0020576
        k(  351) = (  -0.3333333   0.4444444   0.3333333), wk =   0.0020576
        k(  352) = (  -0.3333333   0.4444444  -0.5000000), wk =   0.0020576
        k(  353) = (  -0.3333333   0.4444444  -0.3333333), wk =   0.0020576
        k(  354) = (  -0.3333333   0.4444444  -0.1666667), wk =   0.0020576
        k(  355) = (  -0.3333333  -0.4444444   0.0000000), wk =   0.0020576
        k(  356) = (  -0.3333333  -0.4444444   0.1666667), wk =   0.0020576
[...]
    10.5488  10.7428  11.3531  11.6575  12.2692  12.5368  13.2918  13.2939
    13.5909  14.1747  14.1864  14.3646  14.4830  15.1083  15.1096  15.4395
    15.5082  16.5401  16.7889  17.0634  17.5779  17.8032  18.6795  18.9736
    27.8596  27.9521  28.4073  28.8548  31.4523  32.0338  32.6639  32.9094
    35.5112  35.8587  36.8792  36.9647  38.4743  38.8772  40.1846  40.4029
    40.7780  41.2208  43.4871  43.5315  44.8057  45.2603  46.6608  46.7302
    46.9850  47.3721  47.6673  47.9262  50.8393  51.0996  51.2493  51.3169
    52.8725  53.3961  54.4934  55.0536  57.1379  57.6644  58.3681  58.4450
    60.7229  60.8703  61.3478  61.4316  62.8912  62.9391  62.9901  63.2032
    64.4762  64.8671  66.4679  66.8308  69.0174  69.5712  70.5624  70.7581
    71.6261  71.8271  71.9489  72.3629  75.1623  75.4956  76.3946  76.6068
    78.8373  78.9064

     occupation numbers 
     1.0000   1.0000   1.0000   1.0000   1.0000   1.0000   1.0000   1.0000
     1.0000   1.0000   1.0000   1.0000   1.0000   1.0000   1.0000   1.0000
     1.0000   1.0000   1.0000   1.0000   1.0000   1.0000   1.0000   1.0000
     1.0000   1.0000   1.0124   0.3644  -0.0000  -0.0000  -0.0000  -0.0000
    -0.0000  -0.0000  -0.0000  -0.0000  -0.0000  -0.0000  -0.0000  -0.0000
    -0.0000  -0.0000  -0.0000  -0.0000  -0.0000  -0.0000  -0.0000  -0.0000
    -0.0000  -0.0000  -0.0000  -0.0000  -0.0000  -0.0000  -0.0000  -0.0000
    -0.0000  -0.0000  -0.0000  -0.0000  -0.0000  -0.0000  -0.0000  -0.0000
    -0.0000  -0.0000  -0.0000  -0.0000  -0.0000  -0.0000  -0.0000  -0.0000
    -0.0000  -0.0000  -0.0000  -0.0000  -0.0000  -0.0000  -0.0000  -0.0000
    -0.0000  -0.0000  -0.0000  -0.0000  -0.0000  -0.0000  -0.0000  -0.0000
    -0.0000  -0.0000  -0.0000  -0.0000  -0.0000  -0.0000  -0.0000  -0.0000
    -0.0000  -0.0000

          k =-0.1111-0.2222-0.2406 (  1641 PWs)   bands (ev):

   -71.9609 -68.3758 -38.5533 -38.3273 -37.3922 -34.7941 -34.4107 -33.9316
     9.9563  10.1328  11.5734  11.9063  12.2290  12.5030  13.0582  13.3735
    13.6826  13.8509  14.1650  14.4899  14.7135  14.9962  15.1439  15.7965
    16.0574  16.1842  16.6318  17.5393  18.0759  18.3067  18.4662  19.7928
    26.2070  26.7967  29.7571  30.2850  30.6228  31.1088  32.4515  32.9058
    34.0834  34.3112  37.7867  38.0552  38.7694  38.9647  40.5894  40.7637
    41.8762  42.3310  42.9190  43.0876  43.7974  44.1230  46.6719  46.8827
    47.6667  48.0128  48.2392  48.5162  49.3816  49.5039  51.4862  52.0189
    53.9635  54.1648  56.0021  56.2046  57.4329  57.7686  58.0167  58.2983
    58.3937  58.7486  59.8177  60.2689  62.1366  62.5073  64.6070  65.0459
    66.2810  66.6693  66.9346  67.4143  68.4809  68.6049  68.9995  69.2702
    72.9675  73.0072  73.2417  73.3619  75.2972  75.6729  76.6006  76.8693
    77.0959  77.1663

     occupation numbers 
     1.0000   1.0000   1.0000   1.0000   1.0000   1.0000   1.0000   1.0000
     1.0000   1.0000   1.0000   1.0000   1.0000   1.0000   1.0000   1.0000
     1.0000   1.0000   1.0000   1.0000   1.0000   1.0000   1.0000   1.0000
     1.0000   1.0000   1.0001  -0.0000  -0.0000  -0.0000  -0.0000  -0.0000
    -0.0000  -0.0000  -0.0000  -0.0000  -0.0000  -0.0000  -0.0000  -0.0000
    -0.0000  -0.0000  -0.0000  -0.0000  -0.0000  -0.0000  -0.0000  -0.0000
    -0.0000  -0.0000  -0.0000  -0.0000  -0.0000  -0.0000  -0.0000  -0.0000
    -0.0000  -0.0000  -0.0000  -0.0000  -0.0000  -0.0000  -0.0000  -0.0000
    -0.0000  -0.0000  -0.0000  -0.0000  -0.0000  -0.0000  -0.0000  -0.0000
    -0.0000  -0.0000  -0.0000  -0.0000  -0.0000  -0.0000  -0.0000  -0.0000
    -0.0000  -0.0000  -0.0000  -0.0000  -0.0000  -0.0000  -0.0000  -0.0000
    -0.0000  -0.0000  -0.0000  -0.0000  -0.0000  -0.0000  -0.0000  -0.0000
    -0.0000  -0.0000

          k =-0.1111-0.2222-0.1203 (  1644 PWs)   bands (ev):

   -71.9609 -68.3758 -38.5535 -38.3265 -37.3924 -34.7942 -34.4094 -33.9318
     9.2477   9.3973  11.5260  11.9171  11.9761  12.3563  13.1100  13.5116
    13.7334  13.9537  14.2264  14.6362  14.7747  15.1845  15.3216  15.5957
    16.2863  16.5413  16.7344  17.6824  18.0412  18.4733  20.7979  21.6640
    24.8602  25.4381  28.5698  29.0731  29.6158  30.0896  32.3570  32.7556
    35.6498  35.7393  37.2259  37.5193  38.9173  39.2610  39.7274  39.9153
    42.2472  42.6743  43.2211  43.6183  45.3456  45.6302  45.9387  46.0640
    46.5972  46.8609  47.7765  48.1319  51.7269  51.9657  53.0260  53.1871
    53.8874  54.1136  55.1157  55.3641  55.8750  56.3842  57.0557  57.3584
    59.2605  59.7019  61.3539  61.5760  62.5485  62.9725  63.3423  63.9634
    65.3965  65.5655  67.7388  67.9730  68.4630  68.8406  70.9643  71.2268
    71.9201  72.3468  73.1475  73.3891  74.1734  74.5960  74.9768  75.6190
    76.3232  76.5095

     occupation numbers 
     1.0000   1.0000   1.0000   1.0000   1.0000   1.0000   1.0000   1.0000
     1.0000   1.0000   1.0000   1.0000   1.0000   1.0000   1.0000   1.0000
     1.0000   1.0000   1.0000   1.0000   1.0000   1.0000   1.0000   1.0000
     1.0000   1.0000   1.0032  -0.0000  -0.0000  -0.0000  -0.0000  -0.0000
    -0.0000  -0.0000  -0.0000  -0.0000  -0.0000  -0.0000  -0.0000  -0.0000
    -0.0000  -0.0000  -0.0000  -0.0000  -0.0000  -0.0000  -0.0000  -0.0000
    -0.0000  -0.0000  -0.0000  -0.0000  -0.0000  -0.0000  -0.0000  -0.0000
    -0.0000  -0.0000  -0.0000  -0.0000  -0.0000  -0.0000  -0.0000  -0.0000
    -0.0000  -0.0000  -0.0000  -0.0000  -0.0000  -0.0000  -0.0000  -0.0000
    -0.0000  -0.0000  -0.0000  -0.0000  -0.0000  -0.0000  -0.0000  -0.0000
    -0.0000  -0.0000  -0.0000  -0.0000  -0.0000  -0.0000  -0.0000  -0.0000
    -0.0000  -0.0000  -0.0000  -0.0000  -0.0000  -0.0000  -0.0000  -0.0000
    -0.0000  -0.0000

          k =-0.1111-0.1111 0.0000 (  1647 PWs)   bands (ev):

   -71.9635 -68.3788 -38.5418 -38.3277 -37.3796 -34.7802 -34.4110 -33.9168
     8.1266   8.2577  11.0639  11.2595  11.6061  11.6473  13.3221  13.8743
    14.0713  14.1012  14.6690  14.8476  15.0322  15.2200  15.8580  16.0880
    16.4248  16.6163  17.1402  17.6431  18.3924  18.7151  20.9262  21.5481
    25.9914  26.7273  27.3900  27.8277  28.1330  28.6262  35.5241  35.6154
    36.4740  36.8542  37.2834  37.4357  38.2395  38.5916  39.4995  39.6575
    39.7937  39.9235  45.2891  45.4515  45.7720  45.8855  46.5952  46.5997
    46.8233  47.2035  47.8539  47.8592  50.3005  50.3916  53.5799  53.8513
    54.6614  54.8951  55.1362  55.7156  55.9073  56.0587  56.6129  56.6130
    59.0166  59.1147  59.7297  60.3343  60.6712  60.8185  64.9818  65.1898
    66.0613  66.0755  66.3324  66.3693  66.4852  66.9503  68.6741  68.9721
    69.6955  70.2941  73.0303  73.3486  73.7897  73.8987  75.1203  75.4786
    76.5378  76.9800

     occupation numbers 
     1.0000   1.0000   1.0000   1.0000   1.0000   1.0000   1.0000   1.0000
     1.0000   1.0000   1.0000   1.0000   1.0000   1.0000   1.0000   1.0000
     1.0000   1.0000   1.0000   1.0000   1.0000   1.0000   1.0000   1.0000
     1.0000   1.0000   0.0309  -0.0000  -0.0000  -0.0000  -0.0000  -0.0000
    -0.0000  -0.0000  -0.0000  -0.0000  -0.0000  -0.0000  -0.0000  -0.0000
    -0.0000  -0.0000  -0.0000  -0.0000  -0.0000  -0.0000  -0.0000  -0.0000
    -0.0000  -0.0000  -0.0000  -0.0000  -0.0000  -0.0000  -0.0000  -0.0000
    -0.0000  -0.0000  -0.0000  -0.0000  -0.0000  -0.0000  -0.0000  -0.0000
    -0.0000  -0.0000  -0.0000  -0.0000  -0.0000  -0.0000  -0.0000  -0.0000
    -0.0000  -0.0000  -0.0000  -0.0000  -0.0000  -0.0000  -0.0000  -0.0000
    -0.0000  -0.0000  -0.0000  -0.0000  -0.0000  -0.0000  -0.0000  -0.0000
    -0.0000  -0.0000  -0.0000  -0.0000  -0.0000  -0.0000  -0.0000  -0.0000
    -0.0000  -0.0000

          k =-0.1111-0.1111 0.1203 (  1644 PWs)   bands (ev):

   -71.9634 -68.3787 -38.5418 -38.3283 -37.3795 -34.7802 -34.4118 -33.9168
     8.4407   8.5714  11.2011  11.3369  11.6999  11.7125  13.3655  13.8469
    14.0844  14.1189  14.5648  14.6955  14.8720  15.2043  15.7518  16.1215
    16.3435  16.3802  16.8029  17.5969  18.3773  18.4054  19.4518  20.3746
    27.4374  27.7945  28.2302  28.6186  29.0665  29.6147  34.4550  34.6726
    35.2753  35.5042  37.9048  37.9869  38.8234  39.0423  39.3395  39.4781
    40.9099  41.1594  42.7339  42.9808  46.4381  46.4992  46.8088  46.8772
    47.1816  47.4871  48.6621  48.8055  50.1008  50.1263  52.1983  52.8234
    54.1680  54.3899  54.5027  54.7399  55.7416  56.0579  56.6126  57.0743
    59.1737  59.4493  60.5351  60.6258  61.1634  61.7394  62.8221  63.1229
    65.0756  65.1726  66.5466  66.9800  68.3797  68.7728  70.0068  70.3240
    70.8272  71.3759  73.2228  73.4379  73.6411  73.9119  75.0274  75.4594
    77.7501  78.4216

     occupation numbers 
     1.0000   1.0000   1.0000   1.0000   1.0000   1.0000   1.0000   1.0000
     1.0000   1.0000   1.0000   1.0000   1.0000   1.0000   1.0000   1.0000
     1.0000   1.0000   1.0000   1.0000   1.0000   1.0000   1.0000   1.0000
     1.0000   1.0000   1.0163  -0.0000  -0.0000  -0.0000  -0.0000  -0.0000
    -0.0000  -0.0000  -0.0000  -0.0000  -0.0000  -0.0000  -0.0000  -0.0000
    -0.0000  -0.0000  -0.0000  -0.0000  -0.0000  -0.0000  -0.0000  -0.0000
    -0.0000  -0.0000  -0.0000  -0.0000  -0.0000  -0.0000  -0.0000  -0.0000
    -0.0000  -0.0000  -0.0000  -0.0000  -0.0000  -0.0000  -0.0000  -0.0000
    -0.0000  -0.0000  -0.0000  -0.0000  -0.0000  -0.0000  -0.0000  -0.0000
    -0.0000  -0.0000  -0.0000  -0.0000  -0.0000  -0.0000  -0.0000  -0.0000
    -0.0000  -0.0000  -0.0000  -0.0000  -0.0000  -0.0000  -0.0000  -0.0000
    -0.0000  -0.0000  -0.0000  -0.0000  -0.0000  -0.0000  -0.0000  -0.0000
    -0.0000  -0.0000

          k =-0.1111-0.1111 0.2406 (  1650 PWs)   bands (ev):

   -71.9634 -68.3787 -38.5419 -38.3294 -37.3797 -34.7804 -34.4135 -33.9170
     9.2668   9.3893  11.4387  11.5136  11.8284  11.8384  13.3321  13.7261
    13.8476  14.1902  14.3116  14.5437  14.7111  15.2253  15.4071  15.8170
    16.0479  16.1007  16.3443  17.4293  17.5735  17.8580  18.2343  19.0861
    29.0585  29.4751  29.7250  30.2576  31.8193  32.3325  33.0358  33.2905
    33.6829  33.8881  37.9235  38.3081  38.7358  39.2089  39.6127  39.6204
    40.3453  40.5255  43.1231  43.3869  44.1630  44.8071  46.6216  46.8915
    47.8405  47.9552  48.4368  48.4824  51.0343  51.2147  51.2970  51.6159
    52.9195  53.4208  54.8430  54.9251  55.6223  55.6893  57.9727  58.3928
    58.5299  59.1324  59.2890  59.6924  60.5692  61.0798  64.0851  64.3927
    65.1427  65.4574  65.7166  66.1155  68.9847  69.4933  70.5662  70.6303
    71.5200  71.7952  73.1508  73.4899  75.8293  76.2010  76.6304  76.8783
    77.0380  77.5179

     occupation numbers 
     1.0000   1.0000   1.0000   1.0000   1.0000   1.0000   1.0000   1.0000
     1.0000   1.0000   1.0000   1.0000   1.0000   1.0000   1.0000   1.0000
     1.0000   1.0000   1.0000   1.0000   1.0000   1.0000   1.0000   1.0000
     1.0000   1.0000   1.0000  -0.0002  -0.0000  -0.0000  -0.0000  -0.0000
    -0.0000  -0.0000  -0.0000  -0.0000  -0.0000  -0.0000  -0.0000  -0.0000
    -0.0000  -0.0000  -0.0000  -0.0000  -0.0000  -0.0000  -0.0000  -0.0000
    -0.0000  -0.0000  -0.0000  -0.0000  -0.0000  -0.0000  -0.0000  -0.0000
    -0.0000  -0.0000  -0.0000  -0.0000  -0.0000  -0.0000  -0.0000  -0.0000
    -0.0000  -0.0000  -0.0000  -0.0000  -0.0000  -0.0000  -0.0000  -0.0000
    -0.0000  -0.0000  -0.0000  -0.0000  -0.0000  -0.0000  -0.0000  -0.0000
    -0.0000  -0.0000  -0.0000  -0.0000  -0.0000  -0.0000  -0.0000  -0.0000
    -0.0000  -0.0000  -0.0000  -0.0000  -0.0000  -0.0000  -0.0000  -0.0000
    -0.0000  -0.0000

          k =-0.1111-0.1111-0.3610 (  1660 PWs)   bands (ev):

   -71.9634 -68.3787 -38.5420 -38.3303 -37.3798 -34.7805 -34.4147 -33.9170
     9.9319  10.0260  11.3752  11.6137  11.7254  11.8988  13.2459  13.4859
    13.6301  14.2153  14.4626  14.6079  14.7637  14.8999  15.1827  15.4311
    15.7296  16.2133  16.4332  16.5558  17.4858  17.5642  18.2266  18.6469
    30.5808  30.7819  30.8986  31.2855  31.5318  31.7907  32.3075  32.5842
    34.8396  35.3062  37.2965  37.3685  37.5867  37.7967  40.2831  40.3438
    40.8591  41.0933  41.8371  42.0593  44.4083  44.8798  46.5345  46.5995
    47.6085  47.8460  48.1890  48.2191  51.3392  51.4872  51.8265  52.0842
    52.2227  52.5025  53.9233  54.4665  56.8331  56.8422  57.3322  57.9370
    58.9668  59.3611  60.3834  60.5757  61.5709  61.8706  62.3766  62.3945
    64.1019  64.3317  66.3408  66.6322  68.5634  69.2131  69.5385  69.9508
    73.3204  73.4557  73.8521  73.9939  74.7607  74.9736  76.5235  76.5888
    79.5697  79.8659

     occupation numbers 
     1.0000   1.0000   1.0000   1.0000   1.0000   1.0000   1.0000   1.0000
     1.0000   1.0000   1.0000   1.0000   1.0000   1.0000   1.0000   1.0000
     1.0000   1.0000   1.0000   1.0000   1.0000   1.0000   1.0000   1.0000
     1.0000   1.0000   1.0000   1.0000  -0.0000  -0.0000  -0.0000  -0.0000
    -0.0000  -0.0000  -0.0000  -0.0000  -0.0000  -0.0000  -0.0000  -0.0000
    -0.0000  -0.0000  -0.0000  -0.0000  -0.0000  -0.0000  -0.0000  -0.0000
    -0.0000  -0.0000  -0.0000  -0.0000  -0.0000  -0.0000  -0.0000  -0.0000
    -0.0000  -0.0000  -0.0000  -0.0000  -0.0000  -0.0000  -0.0000  -0.0000
    -0.0000  -0.0000  -0.0000  -0.0000  -0.0000  -0.0000  -0.0000  -0.0000
    -0.0000  -0.0000  -0.0000  -0.0000  -0.0000  -0.0000  -0.0000  -0.0000
    -0.0000  -0.0000  -0.0000  -0.0000  -0.0000  -0.0000  -0.0000  -0.0000
    -0.0000  -0.0000  -0.0000  -0.0000  -0.0000  -0.0000  -0.0000  -0.0000
    -0.0000  -0.0000

          k =-0.1111-0.1111-0.2406 (  1650 PWs)   bands (ev):

   -71.9634 -68.3787 -38.5419 -38.3294 -37.3797 -34.7804 -34.4135 -33.9170
     9.2668   9.3893  11.4387  11.5136  11.8284  11.8384  13.3321  13.7261
    13.8476  14.1902  14.3116  14.5437  14.7111  15.2253  15.4071  15.8170
    16.0479  16.1007  16.3443  17.4293  17.5735  17.8580  18.2343  19.0861
    29.0585  29.4751  29.7250  30.2576  31.8193  32.3325  33.0358  33.2905
    33.6829  33.8881  37.9235  38.3081  38.7358  39.2089  39.6127  39.6204
    40.3453  40.5255  43.1231  43.3869  44.1630  44.8071  46.6216  46.8915
    47.8405  47.9552  48.4368  48.4824  51.0343  51.2147  51.2970  51.6159
    52.9195  53.4208  54.8430  54.9251  55.6223  55.6893  57.9727  58.3928
    58.5299  59.1324  59.2890  59.6924  60.5692  61.0798  64.0851  64.3927
    65.1427  65.4574  65.7166  66.1155  68.9847  69.4933  70.5662  70.6303
    71.5200  71.7952  73.1508  73.4899  75.8293  76.2010  76.6304  76.8783
    77.0380  77.5179

     occupation numbers 
     1.0000   1.0000   1.0000   1.0000   1.0000   1.0000   1.0000   1.0000
     1.0000   1.0000   1.0000   1.0000   1.0000   1.0000   1.0000   1.0000
     1.0000   1.0000   1.0000   1.0000   1.0000   1.0000   1.0000   1.0000
     1.0000   1.0000   1.0000  -0.0002  -0.0000  -0.0000  -0.0000  -0.0000
    -0.0000  -0.0000  -0.0000  -0.0000  -0.0000  -0.0000  -0.0000  -0.0000
    -0.0000  -0.0000  -0.0000  -0.0000  -0.0000  -0.0000  -0.0000  -0.0000
    -0.0000  -0.0000  -0.0000  -0.0000  -0.0000  -0.0000  -0.0000  -0.0000
    -0.0000  -0.0000  -0.0000  -0.0000  -0.0000  -0.0000  -0.0000  -0.0000
    -0.0000  -0.0000  -0.0000  -0.0000  -0.0000  -0.0000  -0.0000  -0.0000
    -0.0000  -0.0000  -0.0000  -0.0000  -0.0000  -0.0000  -0.0000  -0.0000
    -0.0000  -0.0000  -0.0000  -0.0000  -0.0000  -0.0000  -0.0000  -0.0000
    -0.0000  -0.0000  -0.0000  -0.0000  -0.0000  -0.0000  -0.0000  -0.0000
    -0.0000  -0.0000

          k =-0.1111-0.1111-0.1203 (  1644 PWs)   bands (ev):

   -71.9634 -68.3787 -38.5418 -38.3283 -37.3795 -34.7802 -34.4118 -33.9168
     8.4407   8.5714  11.2011  11.3369  11.6999  11.7125  13.3655  13.8469
    14.0844  14.1189  14.5648  14.6955  14.8720  15.2043  15.7518  16.1215
    16.3435  16.3802  16.8029  17.5969  18.3773  18.4054  19.4518  20.3746
    27.4374  27.7945  28.2302  28.6186  29.0665  29.6147  34.4550  34.6726
    35.2753  35.5042  37.9048  37.9869  38.8234  39.0423  39.3395  39.4781
    40.9099  41.1594  42.7339  42.9808  46.4381  46.4992  46.8088  46.8772
    47.1816  47.4871  48.6621  48.8055  50.1008  50.1263  52.1983  52.8234
    54.1680  54.3899  54.5027  54.7399  55.7416  56.0579  56.6126  57.0743
    59.1737  59.4493  60.5351  60.6258  61.1634  61.7394  62.8221  63.1229
    65.0756  65.1726  66.5466  66.9800  68.3797  68.7728  70.0068  70.3240
    70.8272  71.3759  73.2228  73.4379  73.6411  73.9119  75.0274  75.4594
    77.7501  78.4216

     occupation numbers 
     1.0000   1.0000   1.0000   1.0000   1.0000   1.0000   1.0000   1.0000
     1.0000   1.0000   1.0000   1.0000   1.0000   1.0000   1.0000   1.0000
     1.0000   1.0000   1.0000   1.0000   1.0000   1.0000   1.0000   1.0000
     1.0000   1.0000   1.0163  -0.0000  -0.0000  -0.0000  -0.0000  -0.0000
    -0.0000  -0.0000  -0.0000  -0.0000  -0.0000  -0.0000  -0.0000  -0.0000
    -0.0000  -0.0000  -0.0000  -0.0000  -0.0000  -0.0000  -0.0000  -0.0000
    -0.0000  -0.0000  -0.0000  -0.0000  -0.0000  -0.0000  -0.0000  -0.0000
    -0.0000  -0.0000  -0.0000  -0.0000  -0.0000  -0.0000  -0.0000  -0.0000
    -0.0000  -0.0000  -0.0000  -0.0000  -0.0000  -0.0000  -0.0000  -0.0000
    -0.0000  -0.0000  -0.0000  -0.0000  -0.0000  -0.0000  -0.0000  -0.0000
    -0.0000  -0.0000  -0.0000  -0.0000  -0.0000  -0.0000  -0.0000  -0.0000
    -0.0000  -0.0000  -0.0000  -0.0000  -0.0000  -0.0000  -0.0000  -0.0000
    -0.0000  -0.0000

     the Fermi energy is    17.0413 ev
     (compare with:    16.9627 eV, computed in scf)

     Writing all to output data dir ./work/pwscf.save/
 
     init_run     :      0.30s CPU      0.32s WALL (       1 calls)
     electrons    :    367.51s CPU    379.81s WALL (       1 calls)

     Called by init_run:
     wfcinit      :      0.00s CPU      0.00s WALL (       1 calls)
     wfcinit:atom :      0.02s CPU      0.02s WALL (     486 calls)
     wfcinit:wfcr :     10.42s CPU     11.04s WALL (     486 calls)
     potinit      :      0.01s CPU      0.01s WALL (       1 calls)
     hinit0       :      0.14s CPU      0.15s WALL (       1 calls)

     Called by electrons:
     c_bands      :    367.44s CPU    379.72s WALL (       1 calls)
     v_of_rho     :      0.01s CPU      0.01s WALL (       1 calls)
     v_h          :      0.00s CPU      0.00s WALL (       1 calls)
     v_xc         :      0.01s CPU      0.01s WALL (       1 calls)
     newd         :      0.12s CPU      0.14s WALL (       1 calls)

     Called by c_bands:
     init_us_2    :      0.02s CPU      0.03s WALL (     486 calls)
     init_us_2:cp :      0.02s CPU      0.03s WALL (     486 calls)
     cegterg      :    356.11s CPU    366.75s WALL (     998 calls)

     Called by sum_band:

     Called by *egterg:
     cdiaghg      :    167.36s CPU    167.66s WALL (   16740 calls)
     cegterg:over :     15.33s CPU     16.08s WALL (   16254 calls)
     cegterg:upda :      3.85s CPU      3.88s WALL (   16254 calls)
     cegterg:last :     10.87s CPU     10.92s WALL (    8535 calls)
     h_psi        :    150.25s CPU    160.19s WALL (   17738 calls)
     s_psi        :     10.57s CPU     10.67s WALL (   17738 calls)
     g_psi        :      0.35s CPU      0.35s WALL (   16254 calls)

     Called by h_psi:
     h_psi:calbec :      4.65s CPU      5.03s WALL (   17738 calls)
     vloc_psi     :    135.42s CPU    144.61s WALL (   17738 calls)
     add_vuspsi   :      9.76s CPU     10.11s WALL (   17738 calls)

     General routines
     calbec       :      4.59s CPU      4.98s WALL (   17738 calls)
     fft          :      0.01s CPU      0.01s WALL (      31 calls)
     ffts         :      0.00s CPU      0.00s WALL (       4 calls)
     fftw         :    118.57s CPU    126.66s WALL ( 3510112 calls)
     interpolate  :      0.00s CPU      0.00s WALL (       4 calls)
 
     Parallel routines
 
     PWSCF        :   6m18.32s CPU   6m54.88s WALL

 
   This run was terminated on:  20:44:26  10May2024            

=------------------------------------------------------------------------------=
   JOB DONE.
=------------------------------------------------------------------------------=
