       #
       # Generated by the Wannier90 code http://www.wannier.org
       # On 10May2024 at 21:04:43 
       #
CRYSTAL
PRIMVEC
   2.7281430   0.0000000   0.0000000
   0.0000000   2.7281430   0.0000000
   0.0000000   0.0000000   3.7789840
CONVVEC
   2.7281430   0.0000000   0.0000000
   0.0000000   2.7281430   0.0000000
   0.0000000   0.0000000   3.7789840
PRIMCOORD
     2  1
Fe      0.0000000   0.0000000   0.0000000
Pt      1.3640715   1.3640715   1.8894920


BEGIN_BLOCK_DATAGRID_3D
3D_field
BEGIN_DATAGRID_3D_UNKNOWN
    54    54    80
   -2.829185   -2.829185   -3.873459
   5.3552437   0.0000000   0.0000000
   0.0000000   5.3552437   0.0000000
   0.0000000   0.0000000   7.4634934
  0.15793E-01  0.21656E-01  0.24002E-01  0.21591E-01  0.15130E-01  0.66891E-02
  0.16352E-02  0.79349E-02  0.11916E-01  0.13608E-01  0.13470E-01  0.12068E-01
  0.99244E-02  0.74480E-02  0.49702E-02  0.28255E-02  0.14015E-02  0.96051E-03
  0.85735E-03  0.97849E-03  0.21612E-02  0.40441E-02  0.58348E-02  0.63834E-02
  0.46190E-02  0.18856E-02  0.67474E-02  0.11921E-01  0.13991E-01  0.11921E-01
  0.67474E-02  0.18856E-02  0.46189E-02  0.63834E-02  0.58348E-02  0.40441E-02
  0.21612E-02  0.97849E-03  0.85735E-03  0.96051E-03  0.14015E-02  0.28255E-02
  0.49702E-02  0.74480E-02  0.99244E-02  0.12068E-01  0.13470E-01  0.13608E-01
  0.11916E-01  0.79349E-02  0.16352E-02  0.66891E-02  0.15130E-01  0.21591E-01
  0.11212E-01  0.15832E-01  0.18043E-01  0.16595E-01  0.11803E-01  0.52201E-02
  0.16640E-02  0.67769E-02  0.10102E-01  0.11503E-01  0.11310E-01  0.99995E-02
  0.80349E-02  0.57853E-02  0.35566E-02  0.17331E-02  0.11062E-02  0.14271E-02
  0.13442E-02  0.78485E-03  0.15262E-02  0.35778E-02  0.56692E-02  0.66704E-02
  0.55247E-02  0.25476E-02  0.47068E-02  0.91406E-02  0.10974E-01  0.91406E-02
  0.47068E-02  0.25475E-02  0.55247E-02  0.66704E-02  0.56692E-02  0.35778E-02
  0.15262E-02  0.78485E-03  0.13442E-02  0.14271E-02  0.11062E-02  0.17331E-02
  0.35566E-02  0.57853E-02  0.80349E-02  0.99996E-02  0.11310E-01  0.11503E-01
  0.10102E-01  0.67769E-02  0.16640E-02  0.52201E-02  0.11803E-01  0.16595E-01
  0.44743E-02  0.72039E-02  0.90310E-02  0.87430E-02  0.61843E-02  0.22932E-02
  0.25460E-02  0.59948E-02  0.82695E-02  0.91522E-02  0.87981E-02  0.75297E-02
  0.57075E-02  0.36592E-02  0.17671E-02  0.12471E-02  0.22038E-02  0.27844E-02
  0.26287E-02  0.17123E-02  0.63573E-03  0.25027E-02  0.48166E-02  0.63071E-02
  0.60339E-02  0.38582E-02  0.25304E-02  0.50296E-02  0.63343E-02  0.50297E-02
  0.25304E-02  0.38582E-02  0.60339E-02  0.63071E-02  0.48166E-02  0.25027E-02
  0.63573E-03  0.17123E-02  0.26287E-02  0.27844E-02  0.22038E-02  0.12471E-02
  0.17671E-02  0.36592E-02  0.57075E-02  0.75297E-02  0.87981E-02  0.91522E-02
  0.82695E-02  0.59948E-02  0.25460E-02  0.22932E-02  0.61843E-02  0.87430E-02
  0.14651E-02  0.17063E-02  0.23902E-02  0.26256E-02  0.20164E-02  0.18531E-02
  0.34459E-02  0.52214E-02  0.63716E-02  0.66455E-02  0.60551E-02  0.47730E-02
  0.30645E-02  0.13746E-02  0.15261E-02  0.29935E-02  0.41237E-02  0.45923E-02
  0.42877E-02  0.32048E-02  0.14441E-02  0.11434E-02  0.35119E-02  0.53595E-02
  0.58957E-02  0.48686E-02  0.30201E-02  0.22674E-02  0.25426E-02  0.22674E-02
  0.30200E-02  0.48686E-02  0.58957E-02  0.53595E-02  0.35119E-02  0.11434E-02
  0.14441E-02  0.32048E-02  0.42877E-02  0.45923E-02  0.41237E-02  0.29935E-02
  0.15261E-02  0.13746E-02  0.30645E-02  0.47730E-02  0.60551E-02  0.66455E-02
  0.63716E-02  0.52214E-02  0.34458E-02  0.18531E-02  0.20164E-02  0.26256E-02
  0.42594E-02  0.50603E-02  0.49044E-02  0.41952E-02  0.34892E-02  0.32647E-02
  0.35957E-02  0.40746E-02  0.42774E-02  0.39752E-02  0.31189E-02  0.18240E-02
  0.87380E-03  0.22043E-02  0.39269E-02  0.53758E-02  0.63009E-02  0.65415E-02
  0.60239E-02  0.47600E-02  0.28503E-02  0.65945E-03  0.21215E-02  0.41353E-02
  0.52143E-02  0.51223E-02  0.41880E-02  0.31962E-02  0.28145E-02  0.31962E-02
  0.41880E-02  0.51223E-02  0.52143E-02  0.41353E-02  0.21215E-02  0.65945E-03
  0.28503E-02  0.47600E-02  0.60239E-02  0.65415E-02  0.63009E-02  0.53758E-02
  0.39269E-02  0.22043E-02  0.87380E-03  0.18240E-02  0.31189E-02  0.39752E-02
  0.42774E-02  0.40746E-02  0.35957E-02  0.32647E-02  0.34892E-02  0.41952E-02
  0.47054E-02  0.58304E-02  0.58902E-02  0.51323E-02  0.41108E-02  0.32952E-02
  0.28050E-02  0.24427E-02  0.19521E-02  0.11978E-02  0.58579E-03  0.17192E-02
  0.33774E-02  0.51023E-02  0.66610E-02  0.78420E-02  0.84716E-02  0.84299E-02
  0.76621E-02  0.61899E-02  0.41285E-02  0.17286E-02  0.10347E-02  0.30635E-02
  0.44497E-02  0.49489E-02  0.47409E-02  0.42940E-02  0.40815E-02  0.42940E-02
  0.47409E-02  0.49489E-02  0.44497E-02  0.30635E-02  0.10347E-02  0.17286E-02
  0.41285E-02  0.61899E-02  0.76621E-02  0.84299E-02  0.84716E-02  0.78420E-02
  0.66610E-02  0.51023E-02  0.33774E-02  0.17192E-02  0.58579E-03  0.11978E-02
  0.19521E-02  0.24427E-02  0.28050E-02  0.32952E-02  0.41108E-02  0.51323E-02
  0.44673E-02  0.52355E-02  0.52252E-02  0.45085E-02  0.34404E-02  0.23703E-02
  0.14415E-02  0.67073E-03  0.81312E-03  0.19121E-02  0.33049E-02  0.48688E-02
  0.64868E-02  0.80099E-02  0.92730E-02  0.10119E-01  0.10418E-01  0.10077E-01
  0.90514E-02  0.73665E-02  0.51395E-02  0.26081E-02  0.67379E-03  0.24563E-02
  0.40827E-02  0.49927E-02  0.52798E-02  0.52396E-02  0.51826E-02  0.52396E-02
  0.52798E-02  0.49927E-02  0.40827E-02  0.24563E-02  0.67379E-03  0.26081E-02
  0.51395E-02  0.73665E-02  0.90514E-02  0.10077E-01  0.10418E-01  0.10119E-01
  0.92730E-02  0.80099E-02  0.64868E-02  0.48688E-02  0.33049E-02  0.19121E-02
  0.81312E-03  0.67073E-03  0.14415E-02  0.23703E-02  0.34404E-02  0.45085E-02
  0.48599E-02  0.49385E-02  0.45474E-02  0.36725E-02  0.24875E-02  0.12490E-02
  0.76660E-03  0.18578E-02  0.32503E-02  0.47561E-02  0.63269E-02  0.78911E-02
  0.93527E-02  0.10602E-01  0.11528E-01  0.12022E-01  0.11988E-01  0.11354E-01
  0.10086E-01  0.82149E-02  0.58468E-02  0.31935E-02  0.87831E-03  0.23063E-02
  0.42178E-02  0.55301E-02  0.62495E-02  0.65481E-02  0.66199E-02  0.65481E-02
  0.62495E-02  0.55301E-02  0.42178E-02  0.23063E-02  0.87831E-03  0.31934E-02
  0.58468E-02  0.82149E-02  0.10086E-01  0.11354E-01  0.11988E-01  0.12022E-01
  0.11528E-01  0.10602E-01  0.93527E-02  0.78911E-02  0.63269E-02  0.47561E-02
  0.32503E-02  0.18578E-02  0.76659E-03  0.12490E-02  0.24875E-02  0.36725E-02
  0.59570E-02  0.53338E-02  0.43978E-02  0.31451E-02  0.16942E-02  0.85934E-03
  0.22070E-02  0.39593E-02  0.57374E-02  0.74681E-02  0.90953E-02  0.10559E-01
  0.11797E-01  0.12745E-01  0.13336E-01  0.13498E-01  0.13156E-01  0.12257E-01
  0.10785E-01  0.87746E-02  0.63176E-02  0.35875E-02  0.11128E-02  0.23413E-02
  0.45503E-02  0.62663E-02  0.73998E-02  0.80126E-02  0.82019E-02  0.80126E-02
  0.73998E-02  0.62663E-02  0.45503E-02  0.23413E-02  0.11128E-02  0.35875E-02
  0.63176E-02  0.87746E-02  0.10785E-01  0.12257E-01  0.13156E-01  0.13498E-01
  0.13336E-01  0.12745E-01  0.11797E-01  0.10559E-01  0.90953E-02  0.74681E-02
  0.57374E-02  0.39593E-02  0.22070E-02  0.85934E-03  0.16942E-02  0.31451E-02
  0.71081E-02  0.59313E-02  0.44587E-02  0.27497E-02  0.10856E-02  0.17886E-02
  0.38707E-02  0.60238E-02  0.80712E-02  0.99165E-02  0.11501E-01  0.12794E-01
  0.13778E-01  0.14432E-01  0.14720E-01  0.14590E-01  0.13989E-01  0.12880E-01
  0.11261E-01  0.91640E-02  0.66668E-02  0.39113E-02  0.13367E-02  0.22814E-02
  0.46862E-02  0.67055E-02  0.81633E-02  0.90263E-02  0.93098E-02  0.90263E-02
  0.81633E-02  0.67055E-02  0.46862E-02  0.22814E-02  0.13366E-02  0.39112E-02
  0.66668E-02  0.91640E-02  0.11261E-01  0.12880E-01  0.13989E-01  0.14590E-01
  0.14720E-01  0.14432E-01  0.13778E-01  0.12794E-01  0.11501E-01  0.99165E-02
  0.80712E-02  0.60238E-02  0.38707E-02  0.17886E-02  0.10856E-02  0.27497E-02
  0.78486E-02  0.62896E-02  0.43956E-02  0.22879E-02  0.95381E-03  0.29836E-02
  0.54793E-02  0.79098E-02  0.10112E-01  0.11978E-01  0.13462E-01  0.14567E-01
  0.15313E-01  0.15708E-01  0.15735E-01  0.15362E-01  0.14558E-01  0.13304E-01
  0.11596E-01  0.94578E-02  0.69551E-02  0.42176E-02  0.15903E-02  0.19997E-02
  0.44138E-02  0.65485E-02  0.81627E-02  0.91593E-02  0.94952E-02  0.91593E-02
  0.81627E-02  0.65485E-02  0.44138E-02  0.19997E-02  0.15903E-02  0.42176E-02
  0.69551E-02  0.94578E-02  0.11596E-01  0.13304E-01  0.14558E-01  0.15362E-01
  0.15735E-01  0.15708E-01  0.15313E-01  0.14567E-01  0.13462E-01  0.11978E-01
  0.10112E-01  0.79098E-02  0.54793E-02  0.29836E-02  0.95381E-03  0.22879E-02
  0.82093E-02  0.63916E-02  0.41979E-02  0.17849E-02  0.14349E-02  0.41151E-02
  0.68974E-02  0.94981E-02  0.11760E-01  0.13588E-01  0.14958E-01  0.15897E-01
  0.16446E-01  0.16624E-01  0.16430E-01  0.15854E-01  0.14893E-01  0.13539E-01
  0.11784E-01  0.96436E-02  0.71793E-02  0.45204E-02  0.19229E-02  0.14922E-02
  0.36997E-02  0.57531E-02  0.73415E-02  0.83405E-02  0.86809E-02  0.83405E-02
  0.73415E-02  0.57531E-02  0.36997E-02  0.14922E-02  0.19229E-02  0.45204E-02
  0.71793E-02  0.96436E-02  0.11784E-01  0.13539E-01  0.14893E-01  0.15854E-01
  0.16430E-01  0.16624E-01  0.16446E-01  0.15897E-01  0.14958E-01  0.13588E-01
  0.11760E-01  0.94981E-02  0.68974E-02  0.41151E-02  0.14349E-02  0.17849E-02
  0.84210E-02  0.64053E-02  0.39788E-02  0.13106E-02  0.20392E-02  0.50843E-02
  0.80675E-02  0.10763E-01  0.13029E-01  0.14796E-01  0.16061E-01  0.16863E-01
  0.17247E-01  0.17239E-01  0.16852E-01  0.16104E-01  0.15013E-01  0.13582E-01
  0.11810E-01  0.97150E-02  0.73655E-02  0.48817E-02  0.24355E-02  0.91569E-03
  0.25586E-02  0.43801E-02  0.58026E-02  0.66993E-02  0.70051E-02  0.66993E-02
  0.58026E-02  0.43801E-02  0.25586E-02  0.91569E-03  0.24355E-02  0.48817E-02
  0.73655E-02  0.97150E-02  0.11810E-01  0.13582E-01  0.15013E-01  0.16104E-01
  0.16852E-01  0.17239E-01  0.17247E-01  0.16863E-01  0.16061E-01  0.14796E-01
  0.13029E-01  0.10763E-01  0.80675E-02  0.50843E-02  0.20392E-02  0.13106E-02
  0.86020E-02  0.64102E-02  0.37693E-02  0.85740E-03  0.26178E-02  0.58991E-02
  0.90092E-02  0.11747E-01  0.13990E-01  0.15691E-01  0.16859E-01  0.17536E-01
  0.17767E-01  0.17589E-01  0.17037E-01  0.16147E-01  0.14953E-01  0.13473E-01
  0.11725E-01  0.97472E-02  0.76127E-02  0.54140E-02  0.32502E-02  0.12864E-02
  0.10636E-02  0.25006E-02  0.36707E-02  0.44030E-02  0.46511E-02  0.44030E-02
  0.36707E-02  0.25006E-02  0.10636E-02  0.12863E-02  0.32502E-02  0.54140E-02
  0.76127E-02  0.97472E-02  0.11725E-01  0.13473E-01  0.14953E-01  0.16147E-01
  0.17037E-01  0.17589E-01  0.17767E-01  0.17536E-01  0.16859E-01  0.15691E-01
  0.13990E-01  0.11747E-01  0.90092E-02  0.58991E-02  0.26178E-02  0.85739E-03
  0.87546E-02  0.64071E-02  0.35669E-02  0.44603E-03  0.31493E-02  0.65646E-02
  0.97305E-02  0.12466E-01  0.14667E-01  0.16295E-01  0.17363E-01  0.17915E-01
  0.18001E-01  0.17673E-01  0.16985E-01  0.15993E-01  0.14743E-01  0.13270E-01
  0.11616E-01  0.98393E-02  0.80079E-02  0.61780E-02  0.43952E-02  0.27191E-02
  0.12497E-02  0.42827E-03  0.10748E-02  0.16029E-02  0.17836E-02  0.16029E-02
  0.10748E-02  0.42827E-03  0.12497E-02  0.27191E-02  0.43952E-02  0.61780E-02
  0.80079E-02  0.98393E-02  0.11616E-01  0.13270E-01  0.14743E-01  0.15993E-01
  0.16985E-01  0.17673E-01  0.18001E-01  0.17915E-01  0.17363E-01  0.16295E-01
  0.14667E-01  0.12466E-01  0.97305E-02  0.65646E-02  0.31494E-02  0.44603E-03
  0.88847E-02  0.64200E-02  0.34245E-02  0.33537E-03  0.35621E-02  0.70296E-02
  0.10194E-01  0.12890E-01  0.15023E-01  0.16561E-01  0.17523E-01  0.17957E-01
  0.17922E-01  0.17476E-01  0.16691E-01  0.15641E-01  0.14394E-01  0.13003E-01
  0.11523E-01  0.10018E-01  0.85432E-02  0.71286E-02  0.57925E-02  0.45686E-02
  0.35097E-02  0.26618E-02  0.20467E-02  0.16723E-02  0.15460E-02  0.16723E-02
  0.20467E-02  0.26618E-02  0.35097E-02  0.45686E-02  0.57925E-02  0.71286E-02
  0.85432E-02  0.10018E-01  0.11523E-01  0.13003E-01  0.14394E-01  0.15641E-01
  0.16691E-01  0.17476E-01  0.17922E-01  0.17957E-01  0.17523E-01  0.16561E-01
  0.15023E-01  0.12890E-01  0.10194E-01  0.70296E-02  0.35621E-02  0.33537E-03
  0.90055E-02  0.64694E-02  0.33899E-02  0.57088E-03  0.37884E-02  0.72469E-02
  0.10371E-01  0.12999E-01  0.15043E-01  0.16479E-01  0.17337E-01  0.17674E-01
  0.17549E-01  0.17024E-01  0.16179E-01  0.15116E-01  0.13927E-01  0.12682E-01
  0.11437E-01  0.10247E-01  0.91589E-02  0.81947E-02  0.73601E-02  0.66622E-02
  0.61053E-02  0.56760E-02  0.53542E-02  0.51418E-02  0.50655E-02  0.51418E-02
  0.53542E-02  0.56760E-02  0.61053E-02  0.66622E-02  0.73601E-02  0.81946E-02
  0.91589E-02  0.10247E-01  0.11437E-01  0.12682E-01  0.13927E-01  0.15116E-01
  0.16179E-01  0.17024E-01  0.17549E-01  0.17674E-01  0.17337E-01  0.16479E-01
  0.15043E-01  0.12999E-01  0.10371E-01  0.72469E-02  0.37884E-02  0.57088E-03
  0.90652E-02  0.64990E-02  0.34168E-02  0.82383E-03  0.38368E-02  0.72235E-02
  0.10269E-01  0.12809E-01  0.14759E-01  0.16101E-01  0.16872E-01  0.17133E-01
  0.16941E-01  0.16363E-01  0.15496E-01  0.14462E-01  0.13377E-01  0.12319E-01
  0.11343E-01  0.10500E-01  0.98304E-02  0.93480E-02  0.90343E-02  0.88526E-02
  0.87539E-02  0.86811E-02  0.85966E-02  0.85120E-02  0.84749E-02  0.85120E-02
  0.85966E-02  0.86811E-02  0.87539E-02  0.88526E-02  0.90343E-02  0.93480E-02
  0.98304E-02  0.10500E-01  0.11343E-01  0.12319E-01  0.13377E-01  0.14462E-01
  0.15496E-01  0.16363E-01  0.16941E-01  0.17133E-01  0.16872E-01  0.16101E-01
  0.14759E-01  0.12809E-01  0.10269E-01  0.72235E-02  0.38368E-02  0.82383E-03
  0.89507E-02  0.64088E-02  0.34146E-02  0.10305E-02  0.37416E-02  0.69808E-02
  0.99013E-02  0.12333E-01  0.14194E-01  0.15466E-01  0.16174E-01  0.16369E-01
  0.16116E-01  0.15505E-01  0.14654E-01  0.13700E-01  0.12760E-01  0.11917E-01
  0.11234E-01  0.10764E-01  0.10535E-01  0.10523E-01  0.10657E-01  0.10855E-01
  0.11049E-01  0.11190E-01  0.11258E-01  0.11271E-01  0.11268E-01  0.11271E-01
  0.11258E-01  0.11190E-01  0.11049E-01  0.10855E-01  0.10657E-01  0.10523E-01
  0.10535E-01  0.10764E-01  0.11234E-01  0.11917E-01  0.12760E-01  0.13700E-01
  0.14654E-01  0.15505E-01  0.16116E-01  0.16369E-01  0.16174E-01  0.15466E-01
  0.14194E-01  0.12333E-01  0.99013E-02  0.69808E-02  0.37416E-02  0.10305E-02
  0.85415E-02  0.61295E-02  0.33441E-02  0.11548E-02  0.34795E-02  0.65015E-02
  0.92548E-02  0.11561E-01  0.13338E-01  0.14554E-01  0.15211E-01  0.15346E-01
  0.15042E-01  0.14424E-01  0.13633E-01  0.12802E-01  0.12040E-01  0.11433E-01
  0.11058E-01  0.10967E-01  0.11146E-01  0.11508E-01  0.11928E-01  0.12313E-01
  0.12622E-01  0.12851E-01  0.13007E-01  0.13095E-01  0.13123E-01  0.13095E-01
  0.13007E-01  0.12851E-01  0.12622E-01  0.12313E-01  0.11928E-01  0.11508E-01
  0.11146E-01  0.10967E-01  0.11058E-01  0.11433E-01  0.12040E-01  0.12802E-01
  0.13633E-01  0.14424E-01  0.15042E-01  0.15346E-01  0.15211E-01  0.14554E-01
  0.13338E-01  0.11561E-01  0.92548E-02  0.65015E-02  0.34795E-02  0.11548E-02
  0.76915E-02  0.55866E-02  0.31868E-02  0.11801E-02  0.29823E-02  0.57392E-02
  0.83149E-02  0.10497E-01  0.12187E-01  0.13341E-01  0.13945E-01  0.14033E-01
  0.13708E-01  0.13122E-01  0.12427E-01  0.11743E-01  0.11170E-01  0.10805E-01
  0.10729E-01  0.10964E-01  0.11435E-01  0.12009E-01  0.12556E-01  0.13007E-01
  0.13337E-01  0.13543E-01  0.13634E-01  0.13651E-01  0.13648E-01  0.13651E-01
  0.13634E-01  0.13543E-01  0.13337E-01  0.13007E-01  0.12556E-01  0.12009E-01
  0.11435E-01  0.10964E-01  0.10729E-01  0.10805E-01  0.11170E-01  0.11743E-01
  0.12427E-01  0.13122E-01  0.13708E-01  0.14033E-01  0.13945E-01  0.13341E-01
  0.12187E-01  0.10497E-01  0.83149E-02  0.57392E-02  0.29823E-02  0.11801E-02
  0.61749E-02  0.46013E-02  0.28301E-02  0.11304E-02  0.22286E-02  0.46681E-02
  0.70783E-02  0.91628E-02  0.10776E-01  0.11858E-01  0.12407E-01  0.12474E-01
  0.12174E-01  0.11663E-01  0.11080E-01  0.10538E-01  0.10144E-01  0.10005E-01
  0.10181E-01  0.10630E-01  0.11230E-01  0.11860E-01  0.12437E-01  0.12874E-01
  0.13025E-01  0.12758E-01  0.12133E-01  0.11473E-01  0.11190E-01  0.11473E-01
  0.12133E-01  0.12758E-01  0.13025E-01  0.12874E-01  0.12437E-01  0.11860E-01
  0.11230E-01  0.10630E-01  0.10181E-01  0.10005E-01  0.10144E-01  0.10538E-01
  0.11080E-01  0.11663E-01  0.12174E-01  0.12474E-01  0.12407E-01  0.11858E-01
  0.10776E-01  0.91628E-02  0.70783E-02  0.46681E-02  0.22286E-02  0.11304E-02
  0.37894E-02  0.29527E-02  0.20738E-02  0.99198E-03  0.13054E-02  0.33294E-02
  0.55628E-02  0.75821E-02  0.91478E-02  0.10175E-01  0.10685E-01  0.10761E-01
  0.10527E-01  0.10115E-01  0.96460E-02  0.92335E-02  0.90013E-02  0.90534E-02
  0.93998E-02  0.99345E-02  0.10524E-01  0.11103E-01  0.11593E-01  0.11709E-01
  0.10933E-01  0.89091E-02  0.59769E-02  0.32849E-02  0.21812E-02  0.32849E-02
  0.59769E-02  0.89091E-02  0.10933E-01  0.11709E-01  0.11593E-01  0.11103E-01
  0.10524E-01  0.99345E-02  0.93998E-02  0.90534E-02  0.90013E-02  0.92335E-02
  0.96460E-02  0.10115E-01  0.10527E-01  0.10761E-01  0.10685E-01  0.10175E-01
  0.91478E-02  0.75821E-02  0.55628E-02  0.33294E-02  0.13054E-02  0.99198E-03
  0.88820E-03  0.99314E-03  0.10892E-02  0.84955E-03  0.46322E-03  0.18698E-02
  0.38573E-02  0.58050E-02  0.73525E-02  0.83594E-02  0.88601E-02  0.89698E-02
  0.88163E-02  0.85119E-02  0.81590E-02  0.78723E-02  0.77803E-02  0.79642E-02
  0.83838E-02  0.88998E-02  0.94042E-02  0.98495E-02  0.99909E-02  0.90648E-02
  0.59714E-02  0.68306E-03  0.74233E-02  0.13916E-01  0.16505E-01  0.13916E-01
  0.74233E-02  0.68306E-03  0.59714E-02  0.90648E-02  0.99909E-02  0.98495E-02
  0.94042E-02  0.88998E-02  0.83838E-02  0.79642E-02  0.77803E-02  0.78723E-02
  0.81590E-02  0.85119E-02  0.88163E-02  0.89698E-02  0.88601E-02  0.83594E-02
  0.73525E-02  0.58050E-02  0.38573E-02  0.18698E-02  0.46322E-03  0.84955E-03
  0.29555E-02  0.25982E-02  0.19375E-02  0.14261E-02  0.85425E-03  0.59845E-03
  0.21823E-02  0.39849E-02  0.54907E-02  0.64879E-02  0.69947E-02  0.71410E-02
  0.70627E-02  0.68647E-02  0.66360E-02  0.64765E-02  0.64892E-02  0.67205E-02
  0.71097E-02  0.75381E-02  0.79310E-02  0.81584E-02  0.76076E-02  0.48662E-02
  0.20322E-02  0.13073E-01  0.26603E-01  0.37978E-01  0.42446E-01  0.37978E-01
  0.26603E-01  0.13073E-01  0.20322E-02  0.48662E-02  0.76076E-02  0.81584E-02
  0.79310E-02  0.75381E-02  0.71097E-02  0.67205E-02  0.64892E-02  0.64765E-02
  0.66360E-02  0.68647E-02  0.70627E-02  0.71410E-02  0.69947E-02  0.64879E-02
  0.54907E-02  0.39849E-02  0.21823E-02  0.59845E-03  0.85425E-03  0.14261E-02
  0.53585E-02  0.47424E-02  0.36660E-02  0.26247E-02  0.17532E-02  0.75701E-03
  0.85763E-03  0.23782E-02  0.37343E-02  0.46620E-02  0.51485E-02  0.53143E-02
  0.52981E-02  0.52033E-02  0.51020E-02  0.50574E-02  0.51228E-02  0.53126E-02
  0.55843E-02  0.58799E-02  0.61467E-02  0.61094E-02  0.47692E-02  0.69248E-03
  0.98818E-02  0.25480E-01  0.43750E-01  0.58793E-01  0.64647E-01  0.58793E-01
  0.43750E-01  0.25480E-01  0.98817E-02  0.69248E-03  0.47692E-02  0.61094E-02
  0.61467E-02  0.58799E-02  0.55843E-02  0.53126E-02  0.51228E-02  0.50574E-02
  0.51020E-02  0.52033E-02  0.52981E-02  0.53143E-02  0.51485E-02  0.46620E-02
  0.37343E-02  0.23782E-02  0.85763E-03  0.75701E-03  0.17532E-02  0.26247E-02
  0.59154E-02  0.55757E-02  0.48101E-02  0.37727E-02  0.25914E-02  0.13670E-02
  0.31619E-03  0.12161E-02  0.22504E-02  0.29772E-02  0.33738E-02  0.35321E-02
  0.35711E-02  0.35775E-02  0.35944E-02  0.36370E-02  0.37084E-02  0.38042E-02
  0.39167E-02  0.40479E-02  0.41651E-02  0.39271E-02  0.22445E-02  0.30618E-02
  0.13508E-01  0.29379E-01  0.47543E-01  0.62295E-01  0.67998E-01  0.62295E-01
  0.47543E-01  0.29379E-01  0.13508E-01  0.30618E-02  0.22445E-02  0.39271E-02
  0.41651E-02  0.40479E-02  0.39167E-02  0.38042E-02  0.37084E-02  0.36371E-02
  0.35944E-02  0.35775E-02  0.35711E-02  0.35321E-02  0.33738E-02  0.29772E-02
  0.22504E-02  0.12161E-02  0.31619E-03  0.13670E-02  0.25914E-02  0.37727E-02
  0.45386E-02  0.50101E-02  0.51168E-02  0.44917E-02  0.31913E-02  0.16768E-02
  0.45470E-03  0.56784E-03  0.11078E-02  0.14711E-02  0.16947E-02  0.18339E-02
  0.19511E-02  0.20797E-02  0.22131E-02  0.23232E-02  0.23839E-02  0.23860E-02
  0.23394E-02  0.22687E-02  0.21816E-02  0.18873E-02  0.76244E-03  0.30403E-02
  0.99302E-02  0.20126E-01  0.31563E-01  0.40725E-01  0.44243E-01  0.40725E-01
  0.31563E-01  0.20126E-01  0.99302E-02  0.30403E-02  0.76244E-03  0.18873E-02
  0.21816E-02  0.22687E-02  0.23394E-02  0.23860E-02  0.23839E-02  0.23232E-02
  0.22131E-02  0.20797E-02  0.19511E-02  0.18339E-02  0.16947E-02  0.14711E-02
  0.11078E-02  0.56784E-03  0.45470E-03  0.16768E-02  0.31913E-02  0.44917E-02
  0.31428E-02  0.43771E-02  0.50767E-02  0.47182E-02  0.34086E-02  0.17643E-02
  0.48053E-03  0.36416E-03  0.47601E-03  0.36920E-03  0.38722E-03  0.63086E-03
  0.93721E-03  0.12324E-02  0.14769E-02  0.16395E-02  0.16989E-02  0.16487E-02
  0.14902E-02  0.12132E-02  0.80853E-03  0.32649E-03  0.40368E-03  0.14121E-02
  0.30114E-02  0.46996E-02  0.56228E-02  0.54513E-02  0.50845E-02  0.54513E-02
  0.56228E-02  0.46996E-02  0.30114E-02  0.14121E-02  0.40367E-03  0.32649E-03
  0.80853E-03  0.12132E-02  0.14902E-02  0.16487E-02  0.16989E-02  0.16395E-02
  0.14769E-02  0.12324E-02  0.93720E-03  0.63085E-03  0.38721E-03  0.36920E-03
  0.47601E-03  0.36416E-03  0.48052E-03  0.17643E-02  0.34086E-02  0.47182E-02
  0.45386E-02  0.50101E-02  0.51168E-02  0.44917E-02  0.31913E-02  0.16768E-02
  0.45470E-03  0.56784E-03  0.11078E-02  0.14711E-02  0.16947E-02  0.18339E-02
  0.19511E-02  0.20797E-02  0.22131E-02  0.23232E-02  0.23839E-02  0.23860E-02
  0.23394E-02  0.22687E-02  0.21816E-02  0.18873E-02  0.76244E-03  0.30403E-02
  0.99302E-02  0.20126E-01  0.31563E-01  0.40725E-01  0.44243E-01  0.40725E-01
  0.31563E-01  0.20126E-01  0.99302E-02  0.30403E-02  0.76244E-03  0.18873E-02
  0.21816E-02  0.22687E-02  0.23394E-02  0.23860E-02  0.23839E-02  0.23232E-02
  0.22131E-02  0.20797E-02  0.19511E-02  0.18339E-02  0.16947E-02  0.14711E-02
  0.11078E-02  0.56784E-03  0.45470E-03  0.16768E-02  0.31913E-02  0.44917E-02
  0.59154E-02  0.55757E-02  0.48101E-02  0.37727E-02  0.25914E-02  0.13670E-02
  0.31619E-03  0.12161E-02  0.22504E-02  0.29772E-02  0.33738E-02  0.35321E-02
  0.35711E-02  0.35775E-02  0.35944E-02  0.36371E-02  0.37084E-02  0.38042E-02
  0.39167E-02  0.40479E-02  0.41651E-02  0.39271E-02  0.22445E-02  0.30618E-02
  0.13508E-01  0.29379E-01  0.47543E-01  0.62295E-01  0.67998E-01  0.62295E-01
  0.47543E-01  0.29379E-01  0.13508E-01  0.30618E-02  0.22445E-02  0.39271E-02
  0.41651E-02  0.40479E-02  0.39167E-02  0.38042E-02  0.37084E-02  0.36370E-02
  0.35944E-02  0.35774E-02  0.35711E-02  0.35321E-02  0.33738E-02  0.29772E-02
  0.22504E-02  0.12161E-02  0.31619E-03  0.13670E-02  0.25914E-02  0.37727E-02
  0.53585E-02  0.47424E-02  0.36660E-02  0.26247E-02  0.17532E-02  0.75701E-03
  0.85763E-03  0.23782E-02  0.37343E-02  0.46620E-02  0.51485E-02  0.53143E-02
  0.52981E-02  0.52033E-02  0.51020E-02  0.50574E-02  0.51228E-02  0.53126E-02
  0.55843E-02  0.58799E-02  0.61467E-02  0.61094E-02  0.47692E-02  0.69248E-03
  0.98817E-02  0.25480E-01  0.43750E-01  0.58793E-01  0.64647E-01  0.58793E-01
  0.43750E-01  0.25480E-01  0.98818E-02  0.69248E-03  0.47692E-02  0.61094E-02
  0.61467E-02  0.58799E-02  0.55843E-02  0.53126E-02  0.51228E-02  0.50574E-02
  0.51020E-02  0.52033E-02  0.52981E-02  0.53143E-02  0.51485E-02  0.46620E-02
  0.37343E-02  0.23782E-02  0.85763E-03  0.75701E-03  0.17532E-02  0.26247E-02
  0.29555E-02  0.25982E-02  0.19375E-02  0.14261E-02  0.85425E-03  0.59845E-03
  0.21823E-02  0.39849E-02  0.54907E-02  0.64879E-02  0.69947E-02  0.71410E-02
  0.70627E-02  0.68647E-02  0.66360E-02  0.64765E-02  0.64892E-02  0.67205E-02
  0.71097E-02  0.75381E-02  0.79310E-02  0.81584E-02  0.76076E-02  0.48662E-02
  0.20322E-02  0.13073E-01  0.26603E-01  0.37978E-01  0.42446E-01  0.37978E-01
  0.26603E-01  0.13073E-01  0.20322E-02  0.48662E-02  0.76076E-02  0.81584E-02
  0.79310E-02  0.75381E-02  0.71097E-02  0.67205E-02  0.64892E-02  0.64765E-02
  0.66360E-02  0.68647E-02  0.70626E-02  0.71409E-02  0.69947E-02  0.64879E-02
  0.54907E-02  0.39849E-02  0.21823E-02  0.59845E-03  0.85425E-03  0.14261E-02
  0.88820E-03  0.99314E-03  0.10892E-02  0.84955E-03  0.46322E-03  0.18698E-02
  0.38573E-02  0.58050E-02  0.73525E-02  0.83594E-02  0.88601E-02  0.89698E-02
  0.88163E-02  0.85119E-02  0.81590E-02  0.78723E-02  0.77803E-02  0.79642E-02
  0.83838E-02  0.88998E-02  0.94042E-02  0.98495E-02  0.99909E-02  0.90648E-02
  0.59714E-02  0.68306E-03  0.74233E-02  0.13916E-01  0.16505E-01  0.13916E-01
  0.74233E-02  0.68306E-03  0.59714E-02  0.90648E-02  0.99909E-02  0.98495E-02
  0.94042E-02  0.88998E-02  0.83838E-02  0.79642E-02  0.77803E-02  0.78723E-02
  0.81590E-02  0.85119E-02  0.88163E-02  0.89698E-02  0.88601E-02  0.83594E-02
  0.73525E-02  0.58050E-02  0.38573E-02  0.18698E-02  0.46323E-03  0.84955E-03
  0.37894E-02  0.29527E-02  0.20738E-02  0.99198E-03  0.13054E-02  0.33294E-02
  0.55628E-02  0.75821E-02  0.91478E-02  0.10175E-01  0.10685E-01  0.10761E-01
  0.10527E-01  0.10115E-01  0.96460E-02  0.92335E-02  0.90013E-02  0.90534E-02
  0.93998E-02  0.99345E-02  0.10524E-01  0.11103E-01  0.11593E-01  0.11709E-01
  0.10933E-01  0.89091E-02  0.59769E-02  0.32849E-02  0.21812E-02  0.32849E-02
  0.59769E-02  0.89091E-02  0.10933E-01  0.11709E-01  0.11593E-01  0.11103E-01
  0.10524E-01  0.99345E-02  0.93998E-02  0.90534E-02  0.90013E-02  0.92335E-02
  0.96460E-02  0.10115E-01  0.10527E-01  0.10761E-01  0.10685E-01  0.10175E-01
  0.91478E-02  0.75821E-02  0.55628E-02  0.33294E-02  0.13054E-02  0.99198E-03
  0.61749E-02  0.46013E-02  0.28301E-02  0.11304E-02  0.22286E-02  0.46681E-02
  0.70783E-02  0.91628E-02  0.10776E-01  0.11858E-01  0.12407E-01  0.12474E-01
  0.12174E-01  0.11663E-01  0.11080E-01  0.10538E-01  0.10144E-01  0.10005E-01
  0.10181E-01  0.10630E-01  0.11230E-01  0.11860E-01  0.12437E-01  0.12874E-01
  0.13025E-01  0.12758E-01  0.12133E-01  0.11473E-01  0.11190E-01  0.11473E-01
  0.12133E-01  0.12758E-01  0.13025E-01  0.12874E-01  0.12437E-01  0.11860E-01
  0.11230E-01  0.10630E-01  0.10181E-01  0.10005E-01  0.10144E-01  0.10538E-01
  0.11080E-01  0.11663E-01  0.12174E-01  0.12474E-01  0.12407E-01  0.11858E-01
  0.10776E-01  0.91628E-02  0.70783E-02  0.46681E-02  0.22286E-02  0.11304E-02
  0.76915E-02  0.55866E-02  0.31868E-02  0.11801E-02  0.29823E-02  0.57392E-02
  0.83149E-02  0.10497E-01  0.12187E-01  0.13341E-01  0.13945E-01  0.14033E-01
  0.13708E-01  0.13122E-01  0.12427E-01  0.11743E-01  0.11170E-01  0.10805E-01
  0.10729E-01  0.10964E-01  0.11435E-01  0.12009E-01  0.12556E-01  0.13007E-01
  0.13337E-01  0.13543E-01  0.13634E-01  0.13651E-01  0.13648E-01  0.13651E-01
  0.13634E-01  0.13543E-01  0.13337E-01  0.13007E-01  0.12556E-01  0.12009E-01
  0.11435E-01  0.10964E-01  0.10729E-01  0.10805E-01  0.11170E-01  0.11743E-01
  0.12427E-01  0.13122E-01  0.13708E-01  0.14033E-01  0.13945E-01  0.13341E-01
  0.12187E-01  0.10497E-01  0.83149E-02  0.57392E-02  0.29823E-02  0.11801E-02
  0.85415E-02  0.61295E-02  0.33441E-02  0.11548E-02  0.34795E-02  0.65015E-02
  0.92548E-02  0.11561E-01  0.13338E-01  0.14554E-01  0.15211E-01  0.15346E-01
  0.15042E-01  0.14424E-01  0.13633E-01  0.12802E-01  0.12040E-01  0.11433E-01
  0.11058E-01  0.10967E-01  0.11146E-01  0.11508E-01  0.11928E-01  0.12313E-01
  0.12622E-01  0.12851E-01  0.13007E-01  0.13095E-01  0.13123E-01  0.13095E-01
  0.13007E-01  0.12851E-01  0.12622E-01  0.12313E-01  0.11928E-01  0.11508E-01
  0.11146E-01  0.10967E-01  0.11058E-01  0.11433E-01  0.12040E-01  0.12802E-01
  0.13633E-01  0.14424E-01  0.15042E-01  0.15346E-01  0.15211E-01  0.14554E-01
  0.13338E-01  0.11561E-01  0.92548E-02  0.65015E-02  0.34795E-02  0.11548E-02
  0.89507E-02  0.64088E-02  0.34146E-02  0.10305E-02  0.37416E-02  0.69808E-02
  0.99013E-02  0.12333E-01  0.14194E-01  0.15466E-01  0.16174E-01  0.16369E-01
  0.16116E-01  0.15505E-01  0.14654E-01  0.13700E-01  0.12760E-01  0.11917E-01
  0.11234E-01  0.10764E-01  0.10535E-01  0.10523E-01  0.10657E-01  0.10855E-01
  0.11049E-01  0.11190E-01  0.11258E-01  0.11271E-01  0.11268E-01  0.11271E-01
  0.11258E-01  0.11190E-01  0.11049E-01  0.10855E-01  0.10657E-01  0.10523E-01
  0.10535E-01  0.10764E-01  0.11234E-01  0.11917E-01  0.12760E-01  0.13700E-01
  0.14654E-01  0.15505E-01  0.16116E-01  0.16369E-01  0.16174E-01  0.15466E-01
  0.14194E-01  0.12333E-01  0.99013E-02  0.69808E-02  0.37416E-02  0.10305E-02
  0.90652E-02  0.64990E-02  0.34168E-02  0.82382E-03  0.38368E-02  0.72235E-02
  0.10269E-01  0.12809E-01  0.14759E-01  0.16101E-01  0.16872E-01  0.17133E-01
  0.16941E-01  0.16363E-01  0.15496E-01  0.14462E-01  0.13377E-01  0.12319E-01
  0.11343E-01  0.10500E-01  0.98304E-02  0.93480E-02  0.90343E-02  0.88526E-02
  0.87539E-02  0.86811E-02  0.85966E-02  0.85120E-02  0.84749E-02  0.85120E-02
  0.85966E-02  0.86811E-02  0.87539E-02  0.88526E-02  0.90343E-02  0.93480E-02
  0.98304E-02  0.10500E-01  0.11343E-01  0.12319E-01  0.13377E-01  0.14462E-01
  0.15496E-01  0.16363E-01  0.16941E-01  0.17133E-01  0.16872E-01  0.16101E-01
  0.14759E-01  0.12809E-01  0.10269E-01  0.72235E-02  0.38368E-02  0.82382E-03
  0.90055E-02  0.64694E-02  0.33899E-02  0.57088E-03  0.37884E-02  0.72469E-02
  0.10371E-01  0.12999E-01  0.15043E-01  0.16479E-01  0.17337E-01  0.17674E-01
  0.17549E-01  0.17024E-01  0.16179E-01  0.15116E-01  0.13927E-01  0.12682E-01
  0.11437E-01  0.10247E-01  0.91589E-02  0.81946E-02  0.73601E-02  0.66622E-02
  0.61053E-02  0.56760E-02  0.53542E-02  0.51418E-02  0.50655E-02  0.51418E-02
  0.53542E-02  0.56760E-02  0.61053E-02  0.66622E-02  0.73601E-02  0.81946E-02
  0.91589E-02  0.10247E-01  0.11437E-01  0.12682E-01  0.13927E-01  0.15116E-01
  0.16179E-01  0.17024E-01  0.17549E-01  0.17674E-01  0.17337E-01  0.16479E-01
  0.15043E-01  0.12999E-01  0.10371E-01  0.72469E-02  0.37884E-02  0.57087E-03
  0.88847E-02  0.64200E-02  0.34245E-02  0.33537E-03  0.35621E-02  0.70296E-02