       #
       # Generated by the Wannier90 code http://www.wannier.org
       # On 10May2024 at 21:04:43 
       #
CRYSTAL
PRIMVEC
   2.7281430   0.0000000   0.0000000
   0.0000000   2.7281430   0.0000000
   0.0000000   0.0000000   3.7789840
CONVVEC
   2.7281430   0.0000000   0.0000000
   0.0000000   2.7281430   0.0000000
   0.0000000   0.0000000   3.7789840
PRIMCOORD
     2  1
Fe      0.0000000   0.0000000   0.0000000
Pt      1.3640715   1.3640715   1.8894920


BEGIN_BLOCK_DATAGRID_3D
3D_field
BEGIN_DATAGRID_3D_UNKNOWN
    54    54    80
   -2.829185   -2.829185   -3.873459
   5.3552437   0.0000000   0.0000000
   0.0000000   5.3552437   0.0000000
   0.0000000   0.0000000   7.4634934
  0.10404E-02  0.10070E-02  0.80052E-03  0.51012E-03  0.24304E-03  0.97420E-04
  0.12962E-03  0.17322E-03  0.19919E-03  0.21993E-03  0.24205E-03  0.27148E-03
  0.31515E-03  0.37660E-03  0.45373E-03  0.54092E-03  0.63308E-03  0.72639E-03
  0.81238E-03  0.87188E-03  0.88119E-03  0.82877E-03  0.71744E-03  0.54077E-03
  0.32269E-03  0.60585E-03  0.14497E-02  0.24641E-02  0.32727E-02  0.35110E-02
  0.30484E-02  0.20823E-02  0.10071E-02  0.17075E-03  0.30028E-03  0.45330E-03
  0.42996E-03  0.34117E-03  0.25415E-03  0.21496E-03  0.22884E-03  0.25122E-03
  0.25122E-03  0.22884E-03  0.21496E-03  0.25415E-03  0.34117E-03  0.42996E-03
  0.45330E-03  0.30028E-03  0.17075E-03  0.10071E-02  0.20823E-02  0.30484E-02
  0.10070E-02  0.95847E-03  0.74315E-03  0.45787E-03  0.21913E-03  0.14368E-03
  0.19119E-03  0.23307E-03  0.26238E-03  0.28724E-03  0.31074E-03  0.33745E-03
  0.37452E-03  0.42680E-03  0.49359E-03  0.57001E-03  0.65111E-03  0.73330E-03
  0.80874E-03  0.85914E-03  0.86318E-03  0.81624E-03  0.73475E-03  0.62735E-03
  0.47491E-03  0.43757E-03  0.10022E-02  0.19025E-02  0.27182E-02  0.30617E-02
  0.27522E-02  0.19289E-02  0.94795E-03  0.15249E-03  0.32092E-03  0.48962E-03
  0.48355E-03  0.40584E-03  0.31666E-03  0.25190E-03  0.22825E-03  0.22875E-03
  0.22875E-03  0.22825E-03  0.25190E-03  0.31666E-03  0.40584E-03  0.48355E-03
  0.48962E-03  0.32092E-03  0.15249E-03  0.94795E-03  0.19289E-02  0.27522E-02
  0.80052E-03  0.74315E-03  0.55420E-03  0.33164E-03  0.20171E-03  0.21577E-03
  0.25944E-03  0.28952E-03  0.31117E-03  0.32798E-03  0.34091E-03  0.35453E-03
  0.37635E-03  0.41187E-03  0.46143E-03  0.52070E-03  0.58461E-03  0.64971E-03
  0.70972E-03  0.74931E-03  0.75094E-03  0.71618E-03  0.67387E-03  0.65188E-03
  0.62672E-03  0.51897E-03  0.47143E-03  0.96526E-03  0.16258E-02  0.20086E-02
  0.18945E-02  0.13431E-02  0.62083E-03  0.56027E-04  0.36747E-03  0.49968E-03
  0.48965E-03  0.41755E-03  0.33175E-03  0.26246E-03  0.22714E-03  0.21847E-03
  0.21847E-03  0.22714E-03  0.26246E-03  0.33175E-03  0.41755E-03  0.48965E-03
  0.49968E-03  0.36747E-03  0.56027E-04  0.62083E-03  0.13431E-02  0.18945E-02
  0.51012E-03  0.45787E-03  0.33164E-03  0.23428E-03  0.24141E-03  0.28398E-03
  0.31125E-03  0.32447E-03  0.32958E-03  0.32731E-03  0.31926E-03  0.31132E-03
  0.31103E-03  0.32366E-03  0.34999E-03  0.38632E-03  0.42764E-03  0.47096E-03
  0.51244E-03  0.54094E-03  0.54259E-03  0.52107E-03  0.51016E-03  0.55350E-03
  0.64923E-03  0.69935E-03  0.57382E-03  0.32507E-03  0.51118E-03  0.83238E-03
  0.87545E-03  0.61310E-03  0.21011E-03  0.19640E-03  0.40736E-03  0.47578E-03
  0.44853E-03  0.37660E-03  0.29406E-03  0.22722E-03  0.19363E-03  0.18606E-03
  0.18606E-03  0.19363E-03  0.22722E-03  0.29406E-03  0.37660E-03  0.44853E-03
  0.47578E-03  0.40736E-03  0.19640E-03  0.21011E-03  0.61310E-03  0.87545E-03
  0.24304E-03  0.21913E-03  0.20171E-03  0.24141E-03  0.29489E-03  0.32552E-03
  0.33314E-03  0.32582E-03  0.30646E-03  0.27606E-03  0.23921E-03  0.20353E-03
  0.17602E-03  0.16124E-03  0.16047E-03  0.17106E-03  0.18855E-03  0.21056E-03
  0.23538E-03  0.25603E-03  0.26194E-03  0.25434E-03  0.25860E-03  0.32219E-03
  0.47600E-03  0.65423E-03  0.72678E-03  0.61187E-03  0.36028E-03  0.16548E-03
  0.16358E-03  0.12994E-03  0.17976E-03  0.31838E-03  0.40342E-03  0.41232E-03
  0.36646E-03  0.29176E-03  0.21108E-03  0.15093E-03  0.13182E-03  0.13607E-03
  0.13607E-03  0.13182E-03  0.15093E-03  0.21108E-03  0.29176E-03  0.36646E-03
  0.41232E-03  0.40342E-03  0.31838E-03  0.17976E-03  0.12994E-03  0.16358E-03
  0.97419E-04  0.14368E-03  0.21577E-03  0.28398E-03  0.32552E-03  0.33645E-03
  0.32291E-03  0.28953E-03  0.23804E-03  0.17262E-03  0.10174E-03  0.34784E-04
  0.28417E-04  0.73722E-04  0.10568E-03  0.12521E-03  0.13736E-03  0.14590E-03
  0.15142E-03  0.15595E-03  0.16409E-03  0.17332E-03  0.16252E-03  0.10923E-03
  0.15596E-03  0.36063E-03  0.54413E-03  0.60986E-03  0.54500E-03  0.41840E-03
  0.31820E-03  0.28357E-03  0.30108E-03  0.33187E-03  0.33996E-03  0.31293E-03
  0.25541E-03  0.17791E-03  0.97784E-04  0.61539E-04  0.94392E-04  0.12181E-03
  0.12181E-03  0.94392E-04  0.61539E-04  0.97784E-04  0.17791E-03  0.25541E-03
  0.31293E-03  0.33996E-03  0.33187E-03  0.30108E-03  0.28357E-03  0.31820E-03
  0.12962E-03  0.19119E-03  0.25944E-03  0.31125E-03  0.33314E-03  0.32291E-03
  0.28324E-03  0.21652E-03  0.12658E-03  0.24076E-04  0.88095E-04  0.19004E-03
  0.28075E-03  0.35595E-03  0.41245E-03  0.45083E-03  0.47585E-03  0.49194E-03
  0.49975E-03  0.49964E-03  0.49590E-03  0.49061E-03  0.47031E-03  0.40450E-03
  0.26877E-03  0.87049E-04  0.15557E-03  0.29783E-03  0.35449E-03  0.34024E-03
  0.30065E-03  0.27122E-03  0.25939E-03  0.25270E-03  0.23522E-03  0.19797E-03
  0.13969E-03  0.66156E-04  0.31856E-04  0.99929E-04  0.15493E-03  0.18368E-03
  0.18368E-03  0.15493E-03  0.99929E-04  0.31856E-04  0.66156E-04  0.13969E-03
  0.19797E-03  0.23522E-03  0.25270E-03  0.25939E-03  0.27122E-03  0.30065E-03
  0.17322E-03  0.23307E-03  0.28952E-03  0.32447E-03  0.32582E-03  0.28953E-03
  0.21652E-03  0.11041E-03  0.24587E-04  0.16831E-03  0.31402E-03  0.44988E-03
  0.56963E-03  0.66854E-03  0.74304E-03  0.79350E-03  0.82495E-03  0.84298E-03
  0.84973E-03  0.84512E-03  0.83068E-03  0.80827E-03  0.77274E-03  0.70829E-03
  0.59784E-03  0.44095E-03  0.26354E-03  0.11037E-03  0.58185E-04  0.98243E-04
  0.12291E-03  0.13658E-03  0.14694E-03  0.15165E-03  0.14466E-03  0.12444E-03
  0.10201E-03  0.10679E-03  0.14860E-03  0.20081E-03  0.24279E-03  0.26526E-03
  0.26526E-03  0.24279E-03  0.20081E-03  0.14860E-03  0.10679E-03  0.10201E-03
  0.12444E-03  0.14466E-03  0.15165E-03  0.14694E-03  0.13658E-03  0.12291E-03
  0.19919E-03  0.26238E-03  0.31117E-03  0.32958E-03  0.30646E-03  0.23804E-03
  0.12658E-03  0.24587E-04  0.19625E-03  0.38053E-03  0.56065E-03  0.72528E-03
  0.86718E-03  0.98139E-03  0.10650E-02  0.11188E-02  0.11474E-02  0.11565E-02
  0.11501E-02  0.11299E-02  0.10970E-02  0.10520E-02  0.99376E-03  0.91697E-03
  0.81472E-03  0.68502E-03  0.53706E-03  0.39019E-03  0.26461E-03  0.17201E-03
  0.11580E-03  0.97824E-04  0.10918E-03  0.12885E-03  0.14482E-03  0.15761E-03
  0.17517E-03  0.20392E-03  0.24173E-03  0.28024E-03  0.31069E-03  0.32723E-03
  0.32723E-03  0.31069E-03  0.28024E-03  0.24173E-03  0.20392E-03  0.17517E-03
  0.15761E-03  0.14482E-03  0.12885E-03  0.10918E-03  0.97824E-04  0.11580E-03
  0.21993E-03  0.28724E-03  0.32798E-03  0.32731E-03  0.27606E-03  0.17262E-03
  0.24076E-04  0.16831E-03  0.38053E-03  0.59921E-03  0.80782E-03  0.99378E-03
  0.11489E-02  0.12686E-02  0.13510E-02  0.13974E-02  0.14116E-02  0.13986E-02
  0.13647E-02  0.13154E-02  0.12542E-02  0.11824E-02  0.10999E-02  0.10062E-02
  0.90080E-03  0.78349E-03  0.65671E-03  0.52769E-03  0.40690E-03  0.30363E-03
  0.22430E-03  0.17528E-03  0.16106E-03  0.17288E-03  0.19490E-03  0.21924E-03
  0.24503E-03  0.27266E-03  0.30090E-03  0.32683E-03  0.34681E-03  0.35768E-03
  0.35768E-03  0.34681E-03  0.32683E-03  0.30090E-03  0.27266E-03  0.24503E-03
  0.21924E-03  0.19490E-03  0.17288E-03  0.16106E-03  0.17528E-03  0.22430E-03
  0.24205E-03  0.31074E-03  0.34091E-03  0.31926E-03  0.23922E-03  0.10174E-03
  0.88095E-04  0.31402E-03  0.56065E-03  0.80782E-03  0.10376E-02  0.12367E-02
  0.13959E-02  0.15104E-02  0.15791E-02  0.16040E-02  0.15892E-02  0.15406E-02
  0.14668E-02  0.13778E-02  0.12815E-02  0.11811E-02  0.10773E-02  0.97082E-03
  0.86290E-03  0.75394E-03  0.64365E-03  0.53345E-03  0.42785E-03  0.33312E-03
  0.25636E-03  0.20653E-03  0.19130E-03  0.20538E-03  0.23337E-03  0.26412E-03
  0.29289E-03  0.31808E-03  0.33922E-03  0.35601E-03  0.36788E-03  0.37408E-03
  0.37408E-03  0.36788E-03  0.35601E-03  0.33922E-03  0.31808E-03  0.29289E-03
  0.26412E-03  0.23337E-03  0.20538E-03  0.19130E-03  0.20653E-03  0.25636E-03
  0.27148E-03  0.33745E-03  0.35453E-03  0.31132E-03  0.20353E-03  0.34784E-04
  0.19003E-03  0.44988E-03  0.72528E-03  0.99378E-03  0.12367E-02  0.14400E-02
  0.15938E-02  0.16914E-02  0.17318E-02  0.17190E-02  0.16601E-02  0.15643E-02
  0.14430E-02  0.13095E-02  0.11748E-02  0.10454E-02  0.92335E-03  0.81002E-03
  0.70621E-03  0.61094E-03  0.52128E-03  0.43475E-03  0.35164E-03  0.27555E-03
  0.21391E-03  0.17942E-03  0.18244E-03  0.21456E-03  0.25830E-03  0.30240E-03
  0.34145E-03  0.37318E-03  0.39728E-03  0.41455E-03  0.42584E-03  0.43150E-03
  0.43150E-03  0.42584E-03  0.41455E-03  0.39728E-03  0.37318E-03  0.34145E-03
  0.30240E-03  0.25830E-03  0.21456E-03  0.18244E-03  0.17942E-03  0.21391E-03
  0.31515E-03  0.37452E-03  0.37635E-03  0.31103E-03  0.17602E-03  0.28417E-04
  0.28075E-03  0.56963E-03  0.86718E-03  0.11489E-02  0.13959E-02  0.15938E-02
  0.17307E-02  0.17984E-02  0.17960E-02  0.17312E-02  0.16165E-02  0.14657E-02
  0.12928E-02  0.11127E-02  0.93891E-03  0.78090E-03  0.64408E-03  0.53116E-03
  0.44208E-03  0.37260E-03  0.31494E-03  0.26122E-03  0.20696E-03  0.15339E-03
  0.11252E-03  0.11304E-03  0.15986E-03  0.22618E-03  0.29673E-03  0.36462E-03
  0.42556E-03  0.47689E-03  0.51780E-03  0.54874E-03  0.57002E-03  0.58106E-03
  0.58106E-03  0.57002E-03  0.54874E-03  0.51780E-03  0.47689E-03  0.42556E-03
  0.36462E-03  0.29673E-03  0.22618E-03  0.15986E-03  0.11304E-03  0.11252E-03
  0.37660E-03  0.42680E-03  0.41187E-03  0.32366E-03  0.16124E-03  0.73722E-04
  0.35595E-03  0.66854E-03  0.98139E-03  0.12686E-02  0.15104E-02  0.16914E-02
  0.17984E-02  0.18228E-02  0.17663E-02  0.16410E-02  0.14641E-02  0.12533E-02
  0.10254E-02  0.79778E-03  0.58716E-03  0.40801E-03  0.27288E-03  0.19314E-03
  0.16685E-03  0.16567E-03  0.16257E-03  0.14693E-03  0.11718E-03  0.78830E-04
  0.62583E-04  0.11056E-03  0.18991E-03  0.28090E-03  0.37639E-03  0.47100E-03
  0.55983E-03  0.63897E-03  0.70587E-03  0.75883E-03  0.79601E-03  0.81534E-03
  0.81534E-03  0.79601E-03  0.75883E-03  0.70587E-03  0.63897E-03  0.55983E-03
  0.47100E-03  0.37639E-03  0.28090E-03  0.18991E-03  0.11056E-03  0.62582E-04
  0.45373E-03  0.49359E-03  0.46143E-03  0.34999E-03  0.16047E-03  0.10568E-03
  0.41245E-03  0.74304E-03  0.10650E-02  0.13510E-02  0.15791E-02  0.17318E-02
  0.17960E-02  0.17663E-02  0.16490E-02  0.14596E-02  0.12182E-02  0.94475E-03
  0.66074E-03  0.39044E-03  0.17020E-03  0.14133E-03  0.26098E-03  0.35289E-03
  0.39921E-03  0.40488E-03  0.38040E-03  0.33676E-03  0.28357E-03  0.23152E-03
  0.19874E-03  0.21085E-03  0.27408E-03  0.37088E-03  0.48494E-03  0.60548E-03
  0.72460E-03  0.83585E-03  0.93350E-03  0.10121E-02  0.10671E-02  0.10952E-02
  0.10952E-02  0.10671E-02  0.10121E-02  0.93350E-03  0.83585E-03  0.72460E-03
  0.60548E-03  0.48494E-03  0.37088E-03  0.27408E-03  0.21085E-03  0.19874E-03
  0.54091E-03  0.57001E-03  0.52070E-03  0.38632E-03  0.17106E-03  0.12521E-03
  0.45083E-03  0.79350E-03  0.11188E-02  0.13974E-02  0.16040E-02  0.17190E-02
  0.17312E-02  0.16410E-02  0.14596E-02  0.12053E-02  0.89901E-03  0.56510E-03
  0.23974E-03  0.15179E-03  0.38851E-03  0.58878E-03  0.72454E-03  0.79387E-03
  0.80183E-03  0.75978E-03  0.68346E-03  0.58890E-03  0.48967E-03  0.39824E-03
  0.33096E-03  0.31151E-03  0.35623E-03  0.45452E-03  0.58524E-03  0.73219E-03
  0.88377E-03  0.10301E-02  0.11613E-02  0.12676E-02  0.13414E-02  0.13788E-02
  0.13788E-02  0.13414E-02  0.12676E-02  0.11613E-02  0.10301E-02  0.88377E-03
  0.73219E-03  0.58524E-03  0.45452E-03  0.35623E-03  0.31151E-03  0.33096E-03
  0.63308E-03  0.65111E-03  0.58461E-03  0.42763E-03  0.18855E-03  0.13736E-03
  0.47585E-03  0.82495E-03  0.11474E-02  0.14116E-02  0.15892E-02  0.16601E-02
  0.16165E-02  0.14641E-02  0.12182E-02  0.89901E-03  0.53190E-03  0.16847E-03
  0.28476E-03  0.61445E-03  0.88744E-03  0.10840E-02  0.11996E-02  0.12353E-02
  0.11981E-02  0.11023E-02  0.96847E-03  0.81775E-03  0.66755E-03  0.53220E-03
  0.42760E-03  0.37703E-03  0.40303E-03  0.50105E-03  0.64688E-03  0.81949E-03
  0.10035E-02  0.11851E-02  0.13502E-02  0.14852E-02  0.15793E-02  0.16271E-02
  0.16271E-02  0.15793E-02  0.14852E-02  0.13502E-02  0.11851E-02  0.10035E-02
  0.81949E-03  0.64688E-03  0.50105E-03  0.40303E-03  0.37703E-03  0.42760E-03
  0.72638E-03  0.73330E-03  0.64971E-03  0.47096E-03  0.21056E-03  0.14590E-03
  0.49194E-03  0.84298E-03  0.11565E-02  0.13986E-02  0.15406E-02  0.15643E-02
  0.14657E-02  0.12533E-02  0.94475E-03  0.56510E-03  0.16847E-03  0.33638E-03
  0.73923E-03  0.10920E-02  0.13667E-02  0.15510E-02  0.16399E-02  0.16334E-02
  0.15403E-02  0.13804E-02  0.11816E-02  0.97111E-03  0.77020E-03  0.59421E-03
  0.45681E-03  0.37897E-03  0.38867E-03  0.48758E-03  0.64784E-03  0.84398E-03
  0.10573E-02  0.12709E-02  0.14677E-02  0.16307E-02  0.17463E-02  0.18059E-02
  0.18059E-02  0.17463E-02  0.16307E-02  0.14677E-02  0.12709E-02  0.10573E-02
  0.84398E-03  0.64784E-03  0.48758E-03  0.38867E-03  0.37897E-03  0.45681E-03
  0.81238E-03  0.80874E-03  0.70972E-03  0.51244E-03  0.23537E-03  0.15142E-03
  0.49975E-03  0.84973E-03  0.11501E-02  0.13647E-02  0.14668E-02  0.14430E-02
  0.12928E-02  0.10254E-02  0.66074E-03  0.23974E-03  0.28476E-03  0.73923E-03
  0.11645E-02  0.15226E-02  0.17906E-02  0.19527E-02  0.19993E-02  0.19320E-02
  0.17670E-02  0.15344E-02  0.12699E-02  0.10054E-02  0.76406E-03  0.55968E-03
  0.39992E-03  0.29823E-03  0.29140E-03  0.39410E-03  0.56930E-03  0.78624E-03
  0.10245E-02  0.12652E-02  0.14894E-02  0.16784E-02  0.18150E-02  0.18867E-02
  0.18867E-02  0.18150E-02  0.16784E-02  0.14894E-02  0.12652E-02  0.10245E-02
  0.78624E-03  0.56930E-03  0.39410E-03  0.29140E-03  0.29823E-03  0.39992E-03
  0.87187E-03  0.85914E-03  0.74931E-03  0.54094E-03  0.25603E-03  0.15595E-03
  0.49964E-03  0.84512E-03  0.11299E-02  0.13154E-02  0.13778E-02  0.13095E-02
  0.11127E-02  0.79778E-03  0.39044E-03  0.15179E-03  0.61445E-03  0.10920E-02
  0.15226E-02  0.18758E-02  0.21234E-02  0.22421E-02  0.22229E-02  0.20776E-02
  0.18366E-02  0.15398E-02  0.12269E-02  0.93005E-03  0.67233E-03  0.46495E-03
  0.30583E-03  0.18704E-03  0.13895E-03  0.23219E-03  0.41211E-03  0.63891E-03
  0.89286E-03  0.11537E-02  0.14003E-02  0.16110E-02  0.17654E-02  0.18472E-02
  0.18472E-02  0.17654E-02  0.16110E-02  0.14003E-02  0.11537E-02  0.89286E-03
  0.63891E-03  0.41211E-03  0.23219E-03  0.13895E-03  0.18704E-03  0.30583E-03
  0.88119E-03  0.86317E-03  0.75094E-03  0.54259E-03  0.26194E-03  0.16409E-03
  0.49590E-03  0.83068E-03  0.10970E-02  0.12542E-02  0.12815E-02  0.11748E-02
  0.93891E-03  0.58716E-03  0.17020E-03  0.38851E-03  0.88744E-03  0.13667E-02
  0.17906E-02  0.21234E-02  0.23272E-02  0.23780E-02  0.22794E-02  0.20594E-02
  0.17574E-02  0.14140E-02  0.10696E-02  0.76443E-03  0.53047E-03  0.37790E-03
  0.28868E-03  0.23358E-03  0.19482E-03  0.18530E-03  0.26277E-03  0.43866E-03
  0.67523E-03  0.93805E-03  0.11969E-02  0.14226E-02  0.15889E-02  0.16767E-02
  0.16767E-02  0.15889E-02  0.14226E-02  0.11969E-02  0.93805E-03  0.67523E-03
  0.43866E-03  0.26277E-03  0.18530E-03  0.19482E-03  0.23358E-03  0.28868E-03
  0.82877E-03  0.81624E-03  0.71618E-03  0.52107E-03  0.25434E-03  0.17332E-03
  0.49061E-03  0.80827E-03  0.10520E-02  0.11824E-02  0.11811E-02  0.10454E-02
  0.78090E-03  0.40801E-03  0.14133E-03  0.58878E-03  0.10840E-02  0.15510E-02
  0.19527E-02  0.22421E-02  0.23780E-02  0.23499E-02  0.21793E-02  0.18968E-02
  0.15270E-02  0.11034E-02  0.69602E-03  0.42062E-03  0.36180E-03  0.39467E-03
  0.41113E-03  0.41239E-03  0.41381E-03  0.40538E-03  0.37553E-03  0.36544E-03
  0.45845E-03  0.65670E-03  0.89734E-03  0.11236E-02  0.12936E-02  0.13831E-02
  0.13831E-02  0.12936E-02  0.11236E-02  0.89734E-03  0.65670E-03  0.45845E-03
  0.36544E-03  0.37553E-03  0.40538E-03  0.41381E-03  0.41239E-03  0.41113E-03
  0.71744E-03  0.73475E-03  0.67387E-03  0.51016E-03  0.25860E-03  0.16252E-03
  0.47031E-03  0.77274E-03  0.99375E-03  0.10999E-02  0.10773E-02  0.92335E-03
  0.64407E-03  0.27288E-03  0.26098E-03  0.72454E-03  0.11996E-02  0.16399E-02
  0.19993E-02  0.22229E-02  0.22794E-02  0.21793E-02  0.19442E-02  0.15653E-02
  0.10223E-02  0.38444E-03  0.41394E-03  0.83898E-03  0.98355E-03  0.89303E-03
  0.73647E-03  0.64261E-03  0.63488E-03  0.66626E-03  0.66721E-03  0.60580E-03
  0.51180E-03  0.47684E-03  0.57906E-03  0.75606E-03  0.91166E-03  0.99674E-03
  0.99674E-03  0.91166E-03  0.75606E-03  0.57906E-03  0.47684E-03  0.51180E-03
  0.60580E-03  0.66720E-03  0.66626E-03  0.63488E-03  0.64261E-03  0.73647E-03
  0.54077E-03  0.62735E-03  0.65188E-03  0.55350E-03  0.32219E-03  0.10923E-03
  0.40450E-03  0.70829E-03  0.91697E-03  0.10062E-02  0.97082E-03  0.81002E-03
  0.53116E-03  0.19314E-03  0.35289E-03  0.79387E-03  0.12353E-02  0.16334E-02
  0.19320E-02  0.20776E-02  0.20594E-02  0.18968E-02  0.15653E-02  0.96296E-03
  0.11763E-03  0.11947E-02  0.22466E-02  0.27576E-02  0.25727E-02  0.19212E-02
  0.12407E-02  0.85381E-03  0.78917E-03  0.89177E-03  0.98702E-03  0.98169E-03
  0.87069E-03  0.69395E-03  0.52853E-03  0.47740E-03  0.53319E-03  0.58819E-03
  0.58819E-03  0.53319E-03  0.47740E-03  0.52853E-03  0.69395E-03  0.87069E-03
  0.98169E-03  0.98702E-03  0.89177E-03  0.78917E-03  0.85381E-03  0.12407E-02
  0.32269E-03  0.47491E-03  0.62672E-03  0.64923E-03  0.47600E-03  0.15596E-03
  0.26877E-03  0.59784E-03  0.81472E-03  0.90080E-03  0.86290E-03  0.70621E-03
  0.44208E-03  0.16685E-03  0.39921E-03  0.80183E-03  0.11981E-02  0.15403E-02
  0.17670E-02  0.18366E-02  0.17574E-02  0.15270E-02  0.10223E-02  0.11763E-03
  0.16097E-02  0.34943E-02  0.49485E-02  0.52975E-02  0.44168E-02  0.28603E-02
  0.14645E-02  0.75411E-03  0.68515E-03  0.97672E-03  0.12694E-02  0.13838E-02
  0.13210E-02  0.11356E-02  0.88593E-03  0.64354E-03  0.47915E-03  0.41213E-03
  0.41213E-03  0.47915E-03  0.64353E-03  0.88593E-03  0.11356E-02  0.13210E-02
  0.13838E-02  0.12694E-02  0.97672E-03  0.68515E-03  0.75411E-03  0.14645E-02
  0.60585E-03  0.43757E-03  0.51897E-03  0.69935E-03  0.65423E-03  0.36063E-03
  0.87049E-04  0.44095E-03  0.68502E-03  0.78349E-03  0.75394E-03  0.61094E-03
  0.37260E-03  0.16567E-03  0.40488E-03  0.75978E-03  0.11023E-02  0.13804E-02
  0.15344E-02  0.15398E-02  0.14140E-02  0.11034E-02  0.38444E-03  0.11947E-02
  0.34943E-02  0.59630E-02  0.74879E-02  0.72032E-02  0.51980E-02  0.25784E-02
  0.95241E-03  0.84299E-03  0.41631E-03  0.77367E-03  0.14441E-02  0.17595E-02
  0.17704E-02  0.16020E-02  0.13401E-02  0.10556E-02  0.82224E-03  0.69454E-03
  0.69454E-03  0.82224E-03  0.10556E-02  0.13401E-02  0.16020E-02  0.17704E-02
  0.17595E-02  0.14441E-02  0.77367E-03  0.41631E-03  0.84299E-03  0.95241E-03
  0.14497E-02  0.10022E-02  0.47143E-03  0.57382E-03  0.72678E-03  0.54413E-03
  0.15557E-03  0.26354E-03  0.53706E-03  0.65671E-03  0.64365E-03  0.52128E-03
  0.31494E-03  0.16257E-03  0.38040E-03  0.68346E-03  0.96847E-03  0.11816E-02
  0.12699E-02  0.12269E-02  0.10696E-02  0.69602E-03  0.41394E-03  0.22466E-02
  0.49485E-02  0.74879E-02  0.84426E-02  0.69534E-02  0.35892E-02  0.14264E-02
  0.30856E-02  0.31680E-02  0.17348E-02  0.31859E-03  0.14732E-02  0.20716E-02
  0.21673E-02  0.20098E-02  0.17404E-02  0.14382E-02  0.11805E-02  0.10342E-02
  0.10342E-02  0.11805E-02  0.14382E-02  0.17404E-02  0.20098E-02  0.21673E-02
  0.20716E-02  0.14732E-02  0.31859E-03  0.17348E-02  0.31680E-02  0.30856E-02
  0.24641E-02  0.19025E-02  0.96526E-03  0.32507E-03  0.61187E-03  0.60986E-03
  0.29783E-03  0.11037E-03  0.39019E-03  0.52769E-03  0.53345E-03  0.43475E-03
  0.26122E-03  0.14693E-03  0.33676E-03  0.58890E-03  0.81775E-03  0.97111E-03
  0.10054E-02  0.93005E-03  0.76443E-03  0.42062E-03  0.83898E-03  0.27576E-02
  0.52975E-02  0.72032E-02  0.69534E-02  0.39674E-02  0.16978E-02  0.56646E-02
  0.75537E-02  0.65210E-02  0.36618E-02  0.69374E-03  0.14160E-02  0.23097E-02
  0.24711E-02  0.23027E-02  0.20114E-02  0.16863E-02  0.14055E-02  0.12436E-02
  0.12436E-02  0.14055E-02  0.16863E-02  0.20114E-02  0.23027E-02  0.24711E-02
  0.23097E-02  0.14160E-02  0.69374E-03  0.36618E-02  0.65210E-02  0.75537E-02
  0.32727E-02  0.27182E-02  0.16258E-02  0.51118E-03  0.36028E-03  0.54500E-03
  0.35449E-03  0.58185E-04  0.26461E-03  0.40690E-03  0.42785E-03  0.35164E-03
  0.20696E-03  0.11718E-03  0.28357E-03  0.48967E-03  0.66755E-03  0.77020E-03
  0.76406E-03  0.67233E-03  0.53047E-03  0.36180E-03  0.98355E-03  0.25727E-02
  0.44168E-02  0.51980E-02  0.35892E-02  0.16978E-02  0.68252E-02  0.11028E-01
  0.11943E-01  0.94521E-02  0.51782E-02  0.11768E-02  0.14186E-02  0.24834E-02
  0.26449E-02  0.24318E-02  0.20975E-02  0.17363E-02  0.14262E-02  0.12469E-02
  0.12469E-02  0.14262E-02  0.17363E-02  0.20975E-02  0.24318E-02  0.26449E-02
  0.24834E-02  0.14186E-02  0.11768E-02  0.51782E-02  0.94521E-02  0.11943E-01
  0.35110E-02  0.30617E-02  0.20086E-02  0.83238E-03  0.16548E-03  0.41840E-03
  0.34024E-03  0.98243E-04  0.17201E-03  0.30363E-03  0.33312E-03  0.27555E-03
  0.15339E-03  0.78830E-04  0.23152E-03  0.39824E-03  0.53220E-03  0.59420E-03
  0.55968E-03  0.46495E-03  0.37790E-03  0.39467E-03  0.89303E-03  0.19212E-02
  0.28603E-02  0.25784E-02  0.14265E-02  0.56646E-02  0.11028E-01  0.14393E-01
  0.14095E-01  0.10457E-01  0.54003E-02  0.10358E-02  0.15999E-02  0.25881E-02
  0.26486E-02  0.23531E-02  0.19554E-02  0.15450E-02  0.11999E-02  0.10021E-02
  0.10021E-02  0.11999E-02  0.15450E-02  0.19554E-02  0.23531E-02  0.26486E-02
  0.25881E-02  0.15999E-02  0.10358E-02  0.54003E-02  0.10457E-01  0.14095E-01
  0.30484E-02  0.27522E-02  0.18945E-02  0.87545E-03  0.16358E-03  0.31820E-03
  0.30065E-03  0.12291E-03  0.11580E-03  0.22430E-03  0.25636E-03  0.21391E-03
  0.11252E-03  0.62583E-04  0.19874E-03  0.33096E-03  0.42760E-03  0.45681E-03
  0.39992E-03  0.30583E-03  0.28868E-03  0.41113E-03  0.73647E-03  0.12407E-02
  0.14645E-02  0.95241E-03  0.30856E-02  0.75537E-02  0.11943E-01  0.14095E-01
  0.12875E-01  0.89083E-02  0.40744E-02  0.22664E-03  0.19247E-02  0.25750E-02
  0.24432E-02  0.20361E-02  0.15594E-02  0.10905E-02  0.70790E-03  0.48960E-03
  0.48960E-03  0.70790E-03  0.10905E-02  0.15594E-02  0.20361E-02  0.24432E-02
  0.25750E-02  0.19247E-02  0.22664E-03  0.40744E-02  0.89083E-02  0.12875E-01
  0.20823E-02  0.19289E-02  0.13431E-02  0.61310E-03  0.12994E-03  0.28357E-03
  0.27122E-03  0.13658E-03  0.97824E-04  0.17528E-03  0.20653E-03  0.17942E-03
  0.11304E-03  0.11056E-03  0.21085E-03  0.31151E-03  0.37703E-03  0.37897E-03
  0.29823E-03  0.18704E-03  0.23358E-03  0.41239E-03  0.64260E-03  0.85381E-03
  0.75411E-03  0.84299E-03  0.31680E-02  0.65210E-02  0.94521E-02  0.10457E-01
  0.89083E-02  0.55099E-02  0.17913E-02  0.92665E-03  0.21963E-02  0.23676E-02
  0.20059E-02  0.14755E-02  0.91397E-03  0.40309E-03  0.16814E-03  0.30458E-03
  0.30458E-03  0.16814E-03  0.40309E-03  0.91397E-03  0.14755E-02  0.20059E-02
  0.23676E-02  0.21963E-02  0.92665E-03  0.17913E-02  0.55099E-02  0.89083E-02
  0.10071E-02  0.94795E-03  0.62083E-03  0.21011E-03  0.17976E-03  0.30108E-03
  0.25939E-03  0.14694E-03  0.10918E-03  0.16106E-03  0.19130E-03  0.18244E-03
  0.15986E-03  0.18991E-03  0.27408E-03  0.35623E-03  0.40303E-03  0.38867E-03
  0.29140E-03  0.13895E-03  0.19482E-03  0.41381E-03  0.63488E-03  0.78917E-03
  0.68515E-03  0.41631E-03  0.17348E-02  0.36618E-02  0.51782E-02  0.54003E-02
  0.40744E-02  0.17913E-02  0.42865E-03  0.18056E-02  0.21951E-02  0.19136E-02
  0.13441E-02  0.70708E-03  0.27654E-03  0.68590E-03  0.11113E-02  0.13365E-02
  0.13365E-02  0.11113E-02  0.68590E-03  0.27654E-03  0.70708E-03  0.13441E-02
  0.19136E-02  0.21951E-02  0.18056E-02  0.42865E-03  0.17913E-02  0.40744E-02
  0.17075E-03  0.15249E-03  0.56027E-04  0.19640E-03  0.31838E-03  0.33187E-03
  0.25270E-03  0.15165E-03  0.12885E-03  0.17288E-03  0.20538E-03  0.21456E-03
  0.22618E-03  0.28090E-03  0.37088E-03  0.45452E-03  0.50105E-03  0.48758E-03
  0.39410E-03  0.23219E-03  0.18530E-03  0.40538E-03  0.66626E-03  0.89177E-03
  0.97672E-03  0.77367E-03  0.31859E-03  0.69374E-03  0.11768E-02  0.10358E-02
  0.22664E-03  0.92665E-03  0.18056E-02  0.21017E-02  0.18311E-02  0.12257E-02
  0.52647E-03  0.47020E-03  0.11831E-02  0.18509E-02  0.23338E-02  0.25779E-02
  0.25779E-02  0.23338E-02  0.18509E-02  0.11831E-02  0.47020E-03  0.52647E-03
  0.12257E-02  0.18311E-02  0.21017E-02  0.18056E-02  0.92665E-03  0.22664E-03
  0.30028E-03  0.32092E-03  0.36747E-03  0.40736E-03  0.40342E-03  0.33996E-03
  0.23522E-03  0.14466E-03  0.14482E-03  0.19490E-03  0.23337E-03  0.25830E-03
  0.29673E-03  0.37639E-03  0.48494E-03  0.58524E-03  0.64688E-03  0.64784E-03
  0.56930E-03  0.41211E-03  0.26277E-03  0.37553E-03  0.66720E-03  0.98702E-03
  0.12694E-02  0.14441E-02  0.14732E-02  0.14160E-02  0.14186E-02  0.15999E-02
  0.19247E-02  0.21963E-02  0.21951E-02  0.18311E-02  0.11772E-02  0.42434E-03
  0.67624E-03  0.15639E-02  0.24379E-02  0.31800E-02  0.37002E-02  0.39605E-02
  0.39605E-02  0.37002E-02  0.31800E-02  0.24379E-02  0.15639E-02  0.67624E-03
  0.42434E-03  0.11772E-02  0.18311E-02  0.21951E-02  0.21963E-02  0.19247E-02
  0.45330E-03  0.48962E-03  0.49968E-03  0.47578E-03  0.41232E-03  0.31293E-03
  0.19797E-03  0.12444E-03  0.15761E-03  0.21924E-03  0.26412E-03  0.30240E-03
  0.36462E-03  0.47100E-03  0.60548E-03  0.73219E-03  0.81949E-03  0.84398E-03
  0.78624E-03  0.63891E-03  0.43866E-03  0.36544E-03  0.60580E-03  0.98169E-03
  0.13838E-02  0.17595E-02  0.20716E-02  0.23097E-02  0.24834E-02  0.25881E-02
  0.25750E-02  0.23676E-02  0.19136E-02  0.12257E-02  0.42434E-03  0.75927E-03
  0.17808E-02  0.28245E-02  0.37899E-02  0.45832E-02  0.51336E-02  0.54104E-02
  0.54104E-02  0.51335E-02  0.45832E-02  0.37899E-02  0.28245E-02  0.17808E-02
  0.75927E-03  0.42434E-03  0.12257E-02  0.19136E-02  0.23676E-02  0.25750E-02
  0.42996E-03  0.48355E-03  0.48965E-03  0.44853E-03  0.36646E-03  0.25541E-03
  0.13969E-03  0.10201E-03  0.17517E-03  0.24503E-03  0.29289E-03  0.34145E-03
  0.42556E-03  0.55983E-03  0.72460E-03  0.88377E-03  0.10035E-02  0.10573E-02
  0.10245E-02  0.89286E-03  0.67523E-03  0.45845E-03  0.51180E-03  0.87069E-03
  0.13210E-02  0.17704E-02  0.21673E-02  0.24711E-02  0.26449E-02  0.26486E-02
  0.24432E-02  0.20059E-02  0.13441E-02  0.52647E-03  0.67624E-03  0.17808E-02
  0.29636E-02  0.41150E-02  0.51450E-02  0.59767E-02  0.65557E-02  0.68515E-02
  0.68515E-02  0.65557E-02  0.59767E-02  0.51450E-02  0.41150E-02  0.29636E-02
  0.17808E-02  0.67624E-03  0.52647E-03  0.13441E-02  0.20059E-02  0.24432E-02
  0.34117E-03  0.40584E-03  0.41755E-03  0.37660E-03  0.29176E-03  0.17791E-03
  0.66156E-04  0.10679E-03  0.20392E-03  0.27266E-03  0.31808E-03  0.37318E-03
  0.47689E-03  0.63897E-03  0.83585E-03  0.10301E-02  0.11851E-02  0.12709E-02
  0.12652E-02  0.11537E-02  0.93805E-03  0.65670E-03  0.47684E-03  0.69395E-03
  0.11356E-02  0.16020E-02  0.20098E-02  0.23027E-02  0.24318E-02  0.23531E-02
  0.20361E-02  0.14755E-02  0.70708E-03  0.47020E-03  0.15639E-02  0.28245E-02
  0.41150E-02  0.53392E-02  0.64146E-02  0.72799E-02  0.78894E-02  0.82057E-02
  0.82057E-02  0.78894E-02  0.72799E-02  0.64146E-02  0.53392E-02  0.41150E-02
  0.28245E-02  0.15639E-02  0.47020E-03  0.70708E-03  0.14755E-02  0.20361E-02
  0.25415E-03  0.31666E-03  0.33175E-03  0.29406E-03  0.21108E-03  0.97784E-04
  0.31856E-04  0.14860E-03  0.24173E-03  0.30090E-03  0.33922E-03  0.39728E-03
  0.51780E-03  0.70587E-03  0.93350E-03  0.11613E-02  0.13502E-02  0.14677E-02
  0.14894E-02  0.14003E-02  0.11969E-02  0.89734E-03  0.57906E-03  0.52853E-03
  0.88593E-03  0.13401E-02  0.17404E-02  0.20114E-02  0.20975E-02  0.19554E-02
  0.15594E-02  0.91397E-03  0.27654E-03  0.11831E-02  0.24379E-02  0.37899E-02
  0.51450E-02  0.64146E-02  0.75255E-02  0.84230E-02  0.90601E-02  0.93932E-02
  0.93932E-02  0.90601E-02  0.84230E-02  0.75255E-02  0.64146E-02  0.51450E-02
  0.37899E-02  0.24379E-02  0.11831E-02  0.27654E-03  0.91397E-03  0.15594E-02
  0.21496E-03  0.25190E-03  0.26246E-03  0.22722E-03  0.15093E-03  0.61539E-04
  0.99929E-04  0.20081E-03  0.28024E-03  0.32683E-03  0.35601E-03  0.41455E-03
  0.54874E-03  0.75883E-03  0.10121E-02  0.12676E-02  0.14852E-02  0.16307E-02
  0.16784E-02  0.16110E-02  0.14226E-02  0.11236E-02  0.75606E-03  0.47740E-03
  0.64354E-03  0.10556E-02  0.14382E-02  0.16863E-02  0.17363E-02  0.15450E-02
  0.10905E-02  0.40309E-03  0.68590E-03  0.18509E-02  0.31800E-02  0.45832E-02
  0.59767E-02  0.72799E-02  0.84230E-02  0.93470E-02  0.10001E-01  0.10341E-01
  0.10341E-01  0.10001E-01  0.93470E-02  0.84230E-02  0.72799E-02  0.59766E-02
  0.45832E-02  0.31800E-02  0.18509E-02  0.68590E-03  0.40309E-03  0.10905E-02
  0.22884E-03  0.22825E-03  0.22714E-03  0.19363E-03  0.13182E-03  0.94392E-04
  0.15493E-03  0.24279E-03  0.31069E-03  0.34681E-03  0.36788E-03  0.42584E-03
  0.57002E-03  0.79601E-03  0.10671E-02  0.13414E-02  0.15793E-02  0.17463E-02
  0.18150E-02  0.17654E-02  0.15889E-02  0.12936E-02  0.91166E-03  0.53319E-03
  0.47915E-03  0.82224E-03  0.11805E-02  0.14055E-02  0.14262E-02  0.11999E-02
  0.70790E-03  0.16814E-03  0.11113E-02  0.23338E-02  0.37002E-02  0.51335E-02
  0.65557E-02  0.78894E-02  0.90601E-02  0.10001E-01  0.10657E-01  0.10994E-01
  0.10994E-01  0.10657E-01  0.10001E-01  0.90601E-02  0.78894E-02  0.65557E-02
  0.51335E-02  0.37002E-02  0.23338E-02  0.11113E-02  0.16814E-03  0.70790E-03
  0.25122E-03  0.22875E-03  0.21847E-03  0.18606E-03  0.13607E-03  0.12181E-03