       #
       # Generated by the Wannier90 code http://www.wannier.org
       # On 10May2024 at 21:04:43 
       #
CRYSTAL
PRIMVEC
   2.7281430   0.0000000   0.0000000
   0.0000000   2.7281430   0.0000000
   0.0000000   0.0000000   3.7789840
CONVVEC
   2.7281430   0.0000000   0.0000000
   0.0000000   2.7281430   0.0000000
   0.0000000   0.0000000   3.7789840
PRIMCOORD
     2  1
Fe      0.0000000   0.0000000   0.0000000
Pt      1.3640715   1.3640715   1.8894920


BEGIN_BLOCK_DATAGRID_3D
3D_field
BEGIN_DATAGRID_3D_UNKNOWN
    54    54    80
   -2.829185   -2.829185   -3.873459
   5.3552437   0.0000000   0.0000000
   0.0000000   5.3552437   0.0000000
   0.0000000   0.0000000   7.4634934
  0.21335E-01  0.25115E-01  0.24730E-01  0.20212E-01  0.13017E-01  0.51078E-02
  0.20594E-02  0.73498E-02  0.10679E-01  0.12101E-01  0.11946E-01  0.10671E-01
  0.87280E-02  0.64741E-02  0.42101E-02  0.22857E-02  0.12171E-02  0.11533E-02
  0.10498E-02  0.84799E-03  0.19647E-02  0.39683E-02  0.58325E-02  0.62942E-02
  0.42336E-02  0.22121E-02  0.82278E-02  0.13928E-01  0.16192E-01  0.13928E-01
  0.82278E-02  0.22121E-02  0.42336E-02  0.62942E-02  0.58325E-02  0.39683E-02
  0.19647E-02  0.84799E-03  0.10498E-02  0.11533E-02  0.12171E-02  0.22857E-02
  0.42101E-02  0.64741E-02  0.87280E-02  0.10671E-01  0.11946E-01  0.12101E-01
  0.10679E-01  0.73498E-02  0.20594E-02  0.51078E-02  0.13017E-01  0.20212E-01
  0.14966E-01  0.17271E-01  0.16826E-01  0.13641E-01  0.86369E-02  0.30971E-02
  0.22860E-02  0.62521E-02  0.88621E-02  0.99751E-02  0.97516E-02  0.85460E-02
  0.67553E-02  0.47056E-02  0.26987E-02  0.13237E-02  0.15573E-02  0.20675E-02
  0.19580E-02  0.11571E-02  0.11050E-02  0.32363E-02  0.54707E-02  0.65581E-02
  0.54236E-02  0.24875E-02  0.49404E-02  0.94478E-02  0.11304E-01  0.94478E-02
  0.49404E-02  0.24875E-02  0.54236E-02  0.65581E-02  0.54707E-02  0.32363E-02
  0.11050E-02  0.11571E-02  0.19580E-02  0.20675E-02  0.15573E-02  0.13237E-02
  0.26987E-02  0.47056E-02  0.67553E-02  0.85460E-02  0.97516E-02  0.99751E-02
  0.88621E-02  0.62521E-02  0.22860E-02  0.30971E-02  0.86369E-02  0.13641E-01
  0.61810E-02  0.68238E-02  0.65402E-02  0.51882E-02  0.30275E-02  0.13022E-02
  0.31168E-02  0.53946E-02  0.69996E-02  0.76218E-02  0.72343E-02  0.60488E-02
  0.43764E-02  0.25405E-02  0.12502E-02  0.20079E-02  0.31572E-02  0.37455E-02
  0.35732E-02  0.25900E-02  0.93321E-03  0.18836E-02  0.43784E-02  0.61115E-02
  0.61489E-02  0.43315E-02  0.25698E-02  0.40854E-02  0.51587E-02  0.40854E-02
  0.25698E-02  0.43315E-02  0.61489E-02  0.61115E-02  0.43784E-02  0.18836E-02
  0.93321E-03  0.25900E-02  0.35732E-02  0.37455E-02  0.31572E-02  0.20079E-02
  0.12502E-02  0.25405E-02  0.43764E-02  0.60488E-02  0.72343E-02  0.76218E-02
  0.69996E-02  0.53946E-02  0.31168E-02  0.13022E-02  0.30275E-02  0.51882E-02
  0.26036E-02  0.38179E-02  0.43483E-02  0.41063E-02  0.35030E-02  0.32296E-02
  0.36511E-02  0.44402E-02  0.50702E-02  0.51490E-02  0.45318E-02  0.33204E-02
  0.18093E-02  0.11864E-02  0.26126E-02  0.41809E-02  0.53172E-02  0.57890E-02
  0.54846E-02  0.43732E-02  0.25049E-02  0.58186E-03  0.28039E-02  0.49612E-02
  0.59719E-02  0.55790E-02  0.42825E-02  0.31677E-02  0.28530E-02  0.31677E-02
  0.42825E-02  0.55790E-02  0.59719E-02  0.49612E-02  0.28039E-02  0.58186E-03
  0.25049E-02  0.43732E-02  0.54846E-02  0.57890E-02  0.53172E-02  0.41809E-02
  0.26126E-02  0.11864E-02  0.18093E-02  0.33204E-02  0.45318E-02  0.51490E-02
  0.50702E-02  0.44402E-02  0.36511E-02  0.32296E-02  0.35030E-02  0.41063E-02
  0.53938E-02  0.72227E-02  0.76556E-02  0.67777E-02  0.52788E-02  0.39801E-02
  0.33114E-02  0.31245E-02  0.29969E-02  0.25720E-02  0.17162E-02  0.79507E-03
  0.17389E-02  0.34936E-02  0.52476E-02  0.67107E-02  0.76505E-02  0.79070E-02
  0.74023E-02  0.61286E-02  0.41566E-02  0.17101E-02  0.12083E-02  0.34606E-02
  0.50045E-02  0.55672E-02  0.53538E-02  0.48862E-02  0.46663E-02  0.48862E-02
  0.53538E-02  0.55672E-02  0.50045E-02  0.34606E-02  0.12084E-02  0.17101E-02
  0.41566E-02  0.61286E-02  0.74023E-02  0.79070E-02  0.76505E-02  0.67107E-02
  0.52476E-02  0.34936E-02  0.17389E-02  0.79507E-03  0.17162E-02  0.25720E-02
  0.29969E-02  0.31245E-02  0.33114E-02  0.39801E-02  0.52788E-02  0.67777E-02
  0.54500E-02  0.70927E-02  0.73835E-02  0.63940E-02  0.47696E-02  0.32441E-02
  0.21783E-02  0.14614E-02  0.79317E-03  0.35874E-03  0.14526E-02  0.29623E-02
  0.46733E-02  0.64256E-02  0.80201E-02  0.92419E-02  0.99061E-02  0.98910E-02
  0.91410E-02  0.76647E-02  0.55543E-02  0.30269E-02  0.66957E-03  0.21662E-02
  0.38968E-02  0.48978E-02  0.52620E-02  0.52811E-02  0.52476E-02  0.52811E-02
  0.52620E-02  0.48978E-02  0.38968E-02  0.21662E-02  0.66957E-03  0.30268E-02
  0.55543E-02  0.76647E-02  0.91410E-02  0.98909E-02  0.99061E-02  0.92419E-02
  0.80201E-02  0.64255E-02  0.46733E-02  0.29623E-02  0.14526E-02  0.35874E-03
  0.79317E-03  0.14614E-02  0.21783E-02  0.32441E-02  0.47696E-02  0.63940E-02
  0.46428E-02  0.55876E-02  0.56113E-02  0.47228E-02  0.33416E-02  0.19545E-02
  0.83835E-03  0.61774E-03  0.15931E-02  0.28701E-02  0.43628E-02  0.59999E-02
  0.76793E-02  0.92686E-02  0.10606E-01  0.11521E-01  0.11870E-01  0.11561E-01
  0.10549E-01  0.88518E-02  0.65705E-02  0.39215E-02  0.12957E-02  0.14935E-02
  0.33317E-02  0.45662E-02  0.52146E-02  0.54691E-02  0.55268E-02  0.54691E-02
  0.52146E-02  0.45662E-02  0.33317E-02  0.14935E-02  0.12957E-02  0.39215E-02
  0.65705E-02  0.88518E-02  0.10549E-01  0.11561E-01  0.11870E-01  0.11521E-01
  0.10606E-01  0.92686E-02  0.76793E-02  0.59999E-02  0.43628E-02  0.28701E-02
  0.15931E-02  0.61774E-03  0.83835E-03  0.19545E-02  0.33416E-02  0.47228E-02
  0.47658E-02  0.48742E-02  0.44678E-02  0.35223E-02  0.22476E-02  0.10160E-02
  0.11096E-02  0.23928E-02  0.38826E-02  0.54922E-02  0.71686E-02  0.88351E-02
  0.10400E-01  0.11759E-01  0.12791E-01  0.13375E-01  0.13401E-01  0.12797E-01
  0.11531E-01  0.96288E-02  0.71884E-02  0.44046E-02  0.16216E-02  0.14206E-02
  0.34824E-02  0.50177E-02  0.59603E-02  0.64299E-02  0.65664E-02  0.64299E-02
  0.59603E-02  0.50177E-02  0.34824E-02  0.14206E-02  0.16216E-02  0.44045E-02
  0.71884E-02  0.96288E-02  0.11531E-01  0.12797E-01  0.13401E-01  0.13375E-01
  0.12791E-01  0.11759E-01  0.10400E-01  0.88351E-02  0.71686E-02  0.54922E-02
  0.38826E-02  0.23928E-02  0.11096E-02  0.10160E-02  0.22476E-02  0.35223E-02
  0.59135E-02  0.53164E-02  0.43879E-02  0.31354E-02  0.17152E-02  0.10765E-02
  0.24454E-02  0.42493E-02  0.61170E-02  0.79596E-02  0.97115E-02  0.11310E-01
  0.12690E-01  0.13781E-01  0.14500E-01  0.14762E-01  0.14484E-01  0.13610E-01
  0.12125E-01  0.10062E-01  0.75110E-02  0.46329E-02  0.17346E-02  0.16135E-02
  0.39816E-02  0.58984E-02  0.72098E-02  0.79465E-02  0.81806E-02  0.79465E-02
  0.72097E-02  0.58984E-02  0.39816E-02  0.16135E-02  0.17346E-02  0.46329E-02
  0.75110E-02  0.10062E-01  0.12125E-01  0.13610E-01  0.14484E-01  0.14762E-01
  0.14500E-01  0.13781E-01  0.12690E-01  0.11310E-01  0.97115E-02  0.79596E-02
  0.61170E-02  0.42493E-02  0.24454E-02  0.10765E-02  0.17152E-02  0.31354E-02
  0.72316E-02  0.61205E-02  0.46875E-02  0.30086E-02  0.13882E-02  0.18260E-02
  0.38696E-02  0.60803E-02  0.82226E-02  0.10188E-01  0.11916E-01  0.13371E-01
  0.14524E-01  0.15339E-01  0.15764E-01  0.15738E-01  0.15203E-01  0.14115E-01
  0.12469E-01  0.10302E-01  0.76938E-02  0.47780E-02  0.18327E-02  0.17424E-02
  0.43292E-02  0.65587E-02  0.81943E-02  0.91764E-02  0.95020E-02  0.91764E-02
  0.81943E-02  0.65586E-02  0.43292E-02  0.17424E-02  0.18326E-02  0.47780E-02
  0.76938E-02  0.10302E-01  0.12469E-01  0.14115E-01  0.15203E-01  0.15738E-01
  0.15764E-01  0.15339E-01  0.14524E-01  0.13371E-01  0.11916E-01  0.10188E-01
  0.82226E-02  0.60803E-02  0.38696E-02  0.18260E-02  0.13882E-02  0.30086E-02
  0.81031E-02  0.66389E-02  0.48028E-02  0.27354E-02  0.11909E-02  0.28025E-02
  0.52939E-02  0.77862E-02  0.10085E-01  0.12079E-01  0.13720E-01  0.15002E-01
  0.15926E-01  0.16484E-01  0.16647E-01  0.16379E-01  0.15643E-01  0.14411E-01
  0.12673E-01  0.10457E-01  0.78338E-02  0.49316E-02  0.20033E-02  0.16341E-02
  0.42358E-02  0.65834E-02  0.83766E-02  0.94929E-02  0.98711E-02  0.94929E-02
  0.83766E-02  0.65834E-02  0.42358E-02  0.16341E-02  0.20033E-02  0.49316E-02
  0.78338E-02  0.10457E-01  0.12673E-01  0.14411E-01  0.15643E-01  0.16379E-01
  0.16647E-01  0.16484E-01  0.15926E-01  0.15002E-01  0.13720E-01  0.12079E-01
  0.10085E-01  0.77862E-02  0.52939E-02  0.28025E-02  0.11909E-02  0.27354E-02
  0.85013E-02  0.67876E-02  0.46600E-02  0.22954E-02  0.13440E-02  0.38067E-02
  0.65999E-02  0.92604E-02  0.11619E-01  0.13578E-01  0.15108E-01  0.16222E-01
  0.16941E-01  0.17271E-01  0.17207E-01  0.16738E-01  0.15851E-01  0.14527E-01
  0.12751E-01  0.10538E-01  0.79578E-02  0.51399E-02  0.23043E-02  0.12587E-02
  0.36219E-02  0.58749E-02  0.76306E-02  0.87419E-02  0.91222E-02  0.87419E-02
  0.76306E-02  0.58749E-02  0.36219E-02  0.12587E-02  0.23043E-02  0.51399E-02
  0.79578E-02  0.10538E-01  0.12751E-01  0.14527E-01  0.15851E-01  0.16738E-01
  0.17207E-01  0.17271E-01  0.16941E-01  0.16222E-01  0.15108E-01  0.13578E-01
  0.11619E-01  0.92604E-02  0.65999E-02  0.38067E-02  0.13440E-02  0.22954E-02
  0.86542E-02  0.67398E-02  0.43824E-02  0.17730E-02  0.17848E-02  0.47413E-02
  0.77371E-02  0.10485E-01  0.12839E-01  0.14727E-01  0.16137E-01  0.17093E-01
  0.17628E-01  0.17759E-01  0.17501E-01  0.16865E-01  0.15857E-01  0.14472E-01
  0.12699E-01  0.10556E-01  0.81131E-02  0.54932E-02  0.28627E-02  0.88365E-03
  0.24666E-02  0.44601E-02  0.60298E-02  0.70261E-02  0.73674E-02  0.70261E-02
  0.60298E-02  0.44601E-02  0.24666E-02  0.88365E-03  0.28627E-02  0.54932E-02
  0.81131E-02  0.10556E-01  0.12699E-01  0.14472E-01  0.15857E-01  0.16865E-01
  0.17501E-01  0.17759E-01  0.17628E-01  0.17093E-01  0.16137E-01  0.14727E-01
  0.12839E-01  0.10485E-01  0.77371E-02  0.47413E-02  0.17848E-02  0.17730E-02
  0.86798E-02  0.65833E-02  0.40137E-02  0.11750E-02  0.23762E-02  0.56144E-02
  0.87263E-02  0.11497E-01  0.13805E-01  0.15597E-01  0.16875E-01  0.17674E-01
  0.18032E-01  0.17985E-01  0.17563E-01  0.16794E-01  0.15699E-01  0.14288E-01
  0.12573E-01  0.10589E-01  0.84060E-02  0.61157E-02  0.38224E-02  0.16792E-02
  0.90627E-03  0.23951E-02  0.36816E-02  0.44965E-02  0.47743E-02  0.44965E-02
  0.36816E-02  0.23951E-02  0.90627E-03  0.16792E-02  0.38224E-02  0.61157E-02
  0.84060E-02  0.10589E-01  0.12573E-01  0.14288E-01  0.15699E-01  0.16794E-01
  0.17563E-01  0.17985E-01  0.18032E-01  0.17674E-01  0.16875E-01  0.15597E-01
  0.13805E-01  0.11497E-01  0.87263E-02  0.56144E-02  0.23762E-02  0.11750E-02
  0.85750E-02  0.63186E-02  0.35551E-02  0.52418E-03  0.30519E-02  0.64169E-02
  0.95542E-02  0.12286E-01  0.14508E-01  0.16181E-01  0.17315E-01  0.17951E-01
  0.18143E-01  0.17940E-01  0.17389E-01  0.16531E-01  0.15402E-01  0.14033E-01
  0.12460E-01  0.10734E-01  0.89134E-02  0.70523E-02  0.52016E-02  0.34311E-02
  0.18470E-02  0.66953E-03  0.79958E-03  0.13328E-02  0.15276E-02  0.13328E-02
  0.79958E-03  0.66954E-03  0.18470E-02  0.34311E-02  0.52016E-02  0.70523E-02
  0.89134E-02  0.10734E-01  0.12460E-01  0.14033E-01  0.15402E-01  0.16531E-01
  0.17389E-01  0.17940E-01  0.18143E-01  0.17951E-01  0.17315E-01  0.16181E-01
  0.14508E-01  0.12286E-01  0.95542E-02  0.64169E-02  0.30519E-02  0.52418E-03
  0.83557E-02  0.59826E-02  0.30794E-02  0.34269E-03  0.36908E-02  0.70640E-02
  0.10147E-01  0.12783E-01  0.14882E-01  0.16412E-01  0.17394E-01  0.17880E-01
  0.17930E-01  0.17604E-01  0.16962E-01  0.16066E-01  0.14973E-01  0.13733E-01
  0.12391E-01  0.11000E-01  0.96011E-02  0.82222E-02  0.68853E-02  0.56310E-02
  0.45192E-02  0.36069E-02  0.29312E-02  0.25145E-02  0.23732E-02  0.25145E-02
  0.29312E-02  0.36069E-02  0.45192E-02  0.56310E-02  0.68853E-02  0.82222E-02
  0.96012E-02  0.11000E-01  0.12391E-01  0.13733E-01  0.14973E-01  0.16066E-01
  0.16962E-01  0.17604E-01  0.17930E-01  0.17880E-01  0.17394E-01  0.16412E-01
  0.14882E-01  0.12783E-01  0.10147E-01  0.70640E-02  0.36908E-02  0.34269E-03
  0.80718E-02  0.56365E-02  0.26847E-02  0.86251E-03  0.41747E-02  0.74726E-02
  0.10443E-01  0.12941E-01  0.14888E-01  0.16263E-01  0.17100E-01  0.17459E-01
  0.17403E-01  0.16991E-01  0.16298E-01  0.15414E-01  0.14421E-01  0.13381E-01
  0.12335E-01  0.11322E-01  0.10376E-01  0.95146E-02  0.87486E-02  0.80877E-02
  0.75389E-02  0.70978E-02  0.67584E-02  0.65338E-02  0.64535E-02  0.65338E-02
  0.67584E-02  0.70978E-02  0.75389E-02  0.80877E-02  0.87486E-02  0.95146E-02
  0.10376E-01  0.11322E-01  0.12335E-01  0.13381E-01  0.14421E-01  0.15414E-01
  0.16298E-01  0.16991E-01  0.17403E-01  0.17459E-01  0.17100E-01  0.16263E-01
  0.14888E-01  0.12941E-01  0.10443E-01  0.74726E-02  0.41747E-02  0.86251E-03
  0.77302E-02  0.52836E-02  0.23917E-02  0.13166E-02  0.44662E-02  0.76203E-02
  0.10434E-01  0.12766E-01  0.14548E-01  0.15774E-01  0.16485E-01  0.16744E-01
  0.16609E-01  0.16144E-01  0.15441E-01  0.14616E-01  0.13771E-01  0.12971E-01
  0.12251E-01  0.11643E-01  0.11177E-01  0.10864E-01  0.10686E-01  0.10607E-01
  0.10576E-01  0.10541E-01  0.10478E-01  0.10407E-01  0.10374E-01  0.10407E-01
  0.10478E-01  0.10541E-01  0.10576E-01  0.10607E-01  0.10686E-01  0.10864E-01
  0.11177E-01  0.11643E-01  0.12251E-01  0.12971E-01  0.13771E-01  0.14616E-01
  0.15441E-01  0.16144E-01  0.16609E-01  0.16744E-01  0.16485E-01  0.15774E-01
  0.14548E-01  0.12766E-01  0.10434E-01  0.76203E-02  0.44662E-02  0.13166E-02
  0.72815E-02  0.48819E-02  0.21621E-02  0.16452E-02  0.45601E-02  0.75020E-02
  0.10113E-01  0.12260E-01  0.13884E-01  0.14983E-01  0.15594E-01  0.15768E-01
  0.15568E-01  0.15077E-01  0.14408E-01  0.13691E-01  0.13030E-01  0.12489E-01
  0.12108E-01  0.11924E-01  0.11954E-01  0.12169E-01  0.12497E-01  0.12850E-01
  0.13158E-01  0.13377E-01  0.13495E-01  0.13537E-01  0.13544E-01  0.13537E-01
  0.13495E-01  0.13377E-01  0.13158E-01  0.12850E-01  0.12497E-01  0.12169E-01
  0.11954E-01  0.11924E-01  0.12108E-01  0.12489E-01  0.13030E-01  0.13691E-01
  0.14408E-01  0.15077E-01  0.15568E-01  0.15768E-01  0.15594E-01  0.14983E-01
  0.13884E-01  0.12260E-01  0.10113E-01  0.75020E-02  0.45601E-02  0.16452E-02
  0.66559E-02  0.44013E-02  0.19672E-02  0.17931E-02  0.44086E-02  0.70819E-02
  0.94586E-02  0.11412E-01  0.12889E-01  0.13884E-01  0.14411E-01  0.14513E-01
  0.14264E-01  0.13778E-01  0.13189E-01  0.12621E-01  0.12166E-01  0.11890E-01
  0.11850E-01  0.12081E-01  0.12560E-01  0.13189E-01  0.13839E-01  0.14411E-01
  0.14866E-01  0.15203E-01  0.15429E-01  0.15557E-01  0.15597E-01  0.15557E-01
  0.15429E-01  0.15203E-01  0.14866E-01  0.14411E-01  0.13839E-01  0.13189E-01
  0.12560E-01  0.12081E-01  0.11850E-01  0.11890E-01  0.12166E-01  0.12621E-01
  0.13189E-01  0.13778E-01  0.14264E-01  0.14513E-01  0.14411E-01  0.13884E-01
  0.12889E-01  0.11412E-01  0.94586E-02  0.70819E-02  0.44086E-02  0.17931E-02
  0.57593E-02  0.38042E-02  0.17706E-02  0.16842E-02  0.39360E-02  0.63151E-02
  0.84609E-02  0.10235E-01  0.11580E-01  0.12478E-01  0.12931E-01  0.12978E-01
  0.12711E-01  0.12270E-01  0.11793E-01  0.11390E-01  0.11142E-01  0.11123E-01
  0.11399E-01  0.11975E-01  0.12766E-01  0.13623E-01  0.14412E-01  0.15064E-01
  0.15556E-01  0.15880E-01  0.16043E-01  0.16092E-01  0.16097E-01  0.16092E-01
  0.16043E-01  0.15880E-01  0.15556E-01  0.15064E-01  0.14412E-01  0.13623E-01
  0.12766E-01  0.11975E-01  0.11399E-01  0.11123E-01  0.11142E-01  0.11390E-01
  0.11793E-01  0.12270E-01  0.12711E-01  0.12978E-01  0.12931E-01  0.12478E-01
  0.11580E-01  0.10235E-01  0.84609E-02  0.63151E-02  0.39360E-02  0.16842E-02
  0.44721E-02  0.30104E-02  0.15022E-02  0.12813E-02  0.30992E-02  0.51836E-02
  0.71396E-02  0.87815E-02  0.10020E-01  0.10828E-01  0.11217E-01  0.11239E-01
  0.11000E-01  0.10638E-01  0.10283E-01  0.10031E-01  0.99666E-02  0.10177E-01
  0.10704E-01  0.11495E-01  0.12413E-01  0.13321E-01  0.14134E-01  0.14764E-01
  0.15056E-01  0.14860E-01  0.14234E-01  0.13537E-01  0.13232E-01  0.13537E-01
  0.14234E-01  0.14860E-01  0.15056E-01  0.14764E-01  0.14134E-01  0.13321E-01
  0.12413E-01  0.11495E-01  0.10704E-01  0.10177E-01  0.99666E-02  0.10031E-01
  0.10283E-01  0.10638E-01  0.11000E-01  0.11239E-01  0.11217E-01  0.10828E-01
  0.10020E-01  0.87815E-02  0.71396E-02  0.51836E-02  0.30992E-02  0.12813E-02
  0.27742E-02  0.19986E-02  0.11626E-02  0.64151E-03  0.19187E-02  0.37106E-02
  0.55276E-02  0.71024E-02  0.82836E-02  0.90326E-02  0.93841E-02  0.94175E-02
  0.92438E-02  0.89836E-02  0.87427E-02  0.86154E-02  0.87025E-02  0.90878E-02
  0.97684E-02  0.10626E-01  0.11514E-01  0.12352E-01  0.13054E-01  0.13314E-01
  0.12571E-01  0.10431E-01  0.72598E-02  0.43238E-02  0.31195E-02  0.43238E-02
  0.72598E-02  0.10431E-01  0.12571E-01  0.13314E-01  0.13054E-01  0.12352E-01
  0.11514E-01  0.10626E-01  0.97683E-02  0.90878E-02  0.87025E-02  0.86154E-02
  0.87427E-02  0.89836E-02  0.92438E-02  0.94175E-02  0.93841E-02  0.90326E-02
  0.82836E-02  0.71024E-02  0.55276E-02  0.37106E-02  0.19187E-02  0.64151E-03
  0.12517E-02  0.13644E-02  0.12770E-02  0.78414E-03  0.58136E-03  0.20073E-02
  0.37072E-02  0.52637E-02  0.64450E-02  0.71850E-02  0.75383E-02  0.76126E-02
  0.75222E-02  0.73670E-02  0.72329E-02  0.72128E-02  0.74116E-02  0.78943E-02
  0.86115E-02  0.94145E-02  0.10182E-01  0.10853E-01  0.11152E-01  0.10250E-01
  0.69436E-02  0.87429E-03  0.76355E-02  0.14757E-01  0.17601E-01  0.14757E-01
  0.76355E-02  0.87430E-03  0.69436E-02  0.10250E-01  0.11152E-01  0.10853E-01
  0.10182E-01  0.94145E-02  0.86115E-02  0.78943E-02  0.74116E-02  0.72128E-02
  0.72329E-02  0.73670E-02  0.75222E-02  0.76126E-02  0.75383E-02  0.71850E-02
  0.64450E-02  0.52637E-02  0.37072E-02  0.20073E-02  0.58136E-03  0.78414E-03
  0.21852E-02  0.23489E-02  0.23193E-02  0.19858E-02  0.11845E-02  0.49716E-03
  0.19015E-02  0.34222E-02  0.46176E-02  0.53794E-02  0.57616E-02  0.58879E-02
  0.58786E-02  0.58236E-02  0.57935E-02  0.58656E-02  0.61225E-02  0.66004E-02
  0.72342E-02  0.78980E-02  0.85049E-02  0.89027E-02  0.84189E-02  0.55130E-02
  0.19695E-02  0.13998E-01  0.28808E-01  0.41286E-01  0.46192E-01  0.41286E-01
  0.28808E-01  0.13998E-01  0.19695E-02  0.55130E-02  0.84189E-02  0.89027E-02
  0.85049E-02  0.78980E-02  0.72342E-02  0.66004E-02  0.61225E-02  0.58656E-02
  0.57935E-02  0.58236E-02  0.58786E-02  0.58879E-02  0.57616E-02  0.53794E-02
  0.46176E-02  0.34222E-02  0.19015E-02  0.49716E-03  0.11845E-02  0.19858E-02
  0.37034E-02  0.37492E-02  0.35737E-02  0.31423E-02  0.23433E-02  0.11705E-02
  0.54596E-03  0.18424E-02  0.29754E-02  0.37254E-02  0.41258E-02  0.42965E-02
  0.43586E-02  0.43965E-02  0.44624E-02  0.45989E-02  0.48456E-02  0.52141E-02
  0.56629E-02  0.61282E-02  0.65446E-02  0.66073E-02  0.52332E-02  0.82731E-03
  0.10637E-01  0.27657E-01  0.47657E-01  0.64158E-01  0.70586E-01  0.64158E-01
  0.47657E-01  0.27657E-01  0.10637E-01  0.82731E-03  0.52332E-02  0.66073E-02
  0.65446E-02  0.61282E-02  0.56629E-02  0.52141E-02  0.48456E-02  0.45989E-02
  0.44624E-02  0.43965E-02  0.43586E-02  0.42965E-02  0.41258E-02  0.37254E-02
  0.29754E-02  0.18424E-02  0.54596E-03  0.11705E-02  0.23433E-02  0.31423E-02
  0.45047E-02  0.46136E-02  0.43556E-02  0.37518E-02  0.28457E-02  0.17267E-02
  0.57618E-03  0.77668E-03  0.16763E-02  0.23117E-02  0.26839E-02  0.28865E-02
  0.30193E-02  0.31448E-02  0.32860E-02  0.34449E-02  0.36203E-02  0.38125E-02
  0.40187E-02  0.42382E-02  0.44287E-02  0.42229E-02  0.24573E-02  0.32984E-02
  0.14615E-01  0.31923E-01  0.51816E-01  0.68017E-01  0.74290E-01  0.68017E-01
  0.51816E-01  0.31923E-01  0.14615E-01  0.32984E-02  0.24573E-02  0.42228E-02
  0.44287E-02  0.42382E-02  0.40187E-02  0.38125E-02  0.36203E-02  0.34449E-02
  0.32860E-02  0.31448E-02  0.30193E-02  0.28865E-02  0.26839E-02  0.23117E-02
  0.16763E-02  0.77668E-03  0.57618E-03  0.17267E-02  0.28457E-02  0.37519E-02
  0.45505E-02  0.47594E-02  0.44552E-02  0.36984E-02  0.26517E-02  0.15637E-02
  0.65378E-03  0.31021E-03  0.75996E-03  0.11643E-02  0.14727E-02  0.17238E-02
  0.19534E-02  0.21710E-02  0.23642E-02  0.25102E-02  0.25890E-02  0.25971E-02
  0.25488E-02  0.24694E-02  0.23661E-02  0.20519E-02  0.90531E-03  0.32072E-02
  0.10595E-01  0.21689E-01  0.34271E-01  0.44427E-01  0.48342E-01  0.44427E-01
  0.34271E-01  0.21689E-01  0.10595E-01  0.32072E-02  0.90531E-03  0.20519E-02
  0.23661E-02  0.24694E-02  0.25488E-02  0.25971E-02  0.25890E-02  0.25102E-02
  0.23642E-02  0.21710E-02  0.19534E-02  0.17238E-02  0.14727E-02  0.11643E-02
  0.75996E-03  0.31022E-03  0.65379E-03  0.15637E-02  0.26518E-02  0.36985E-02
  0.44153E-02  0.46669E-02  0.43424E-02  0.35171E-02  0.23873E-02  0.12788E-02
  0.51217E-03  0.23607E-03  0.26766E-03  0.48318E-03  0.80385E-03  0.11469E-02
  0.14716E-02  0.17536E-02  0.19724E-02  0.21051E-02  0.21302E-02  0.20389E-02
  0.18324E-02  0.15003E-02  0.10347E-02  0.55515E-03  0.58145E-03  0.11436E-02
  0.21569E-02  0.35329E-02  0.47627E-02  0.54487E-02  0.56318E-02  0.54487E-02
  0.47627E-02  0.35329E-02  0.21569E-02  0.11436E-02  0.58145E-03  0.55515E-03
  0.10347E-02  0.15003E-02  0.18324E-02  0.20389E-02  0.21302E-02  0.21051E-02
  0.19724E-02  0.17536E-02  0.14716E-02  0.11469E-02  0.80385E-03  0.48318E-03
  0.26766E-03  0.23607E-03  0.51218E-03  0.12788E-02  0.23874E-02  0.35171E-02
  0.45505E-02  0.47594E-02  0.44552E-02  0.36985E-02  0.26518E-02  0.15637E-02
  0.65379E-03  0.31021E-03  0.75996E-03  0.11643E-02  0.14727E-02  0.17238E-02
  0.19534E-02  0.21710E-02  0.23642E-02  0.25102E-02  0.25890E-02  0.25971E-02
  0.25488E-02  0.24694E-02  0.23661E-02  0.20519E-02  0.90531E-03  0.32072E-02
  0.10595E-01  0.21689E-01  0.34271E-01  0.44427E-01  0.48342E-01  0.44427E-01
  0.34271E-01  0.21689E-01  0.10595E-01  0.32072E-02  0.90531E-03  0.20519E-02
  0.23661E-02  0.24694E-02  0.25488E-02  0.25971E-02  0.25890E-02  0.25102E-02
  0.23642E-02  0.21710E-02  0.19534E-02  0.17238E-02  0.14727E-02  0.11643E-02
  0.75996E-03  0.31022E-03  0.65379E-03  0.15637E-02  0.26518E-02  0.36985E-02
  0.45047E-02  0.46136E-02  0.43556E-02  0.37518E-02  0.28457E-02  0.17267E-02
  0.57619E-03  0.77668E-03  0.16763E-02  0.23117E-02  0.26839E-02  0.28865E-02
  0.30193E-02  0.31448E-02  0.32860E-02  0.34449E-02  0.36203E-02  0.38125E-02
  0.40187E-02  0.42382E-02  0.44287E-02  0.42228E-02  0.24573E-02  0.32984E-02
  0.14615E-01  0.31923E-01  0.51816E-01  0.68017E-01  0.74290E-01  0.68017E-01
  0.51816E-01  0.31923E-01  0.14615E-01  0.32984E-02  0.24573E-02  0.42229E-02
  0.44287E-02  0.42382E-02  0.40187E-02  0.38125E-02  0.36203E-02  0.34449E-02
  0.32860E-02  0.31448E-02  0.30193E-02  0.28865E-02  0.26839E-02  0.23117E-02
  0.16763E-02  0.77668E-03  0.57618E-03  0.17267E-02  0.28457E-02  0.37518E-02
  0.37034E-02  0.37492E-02  0.35737E-02  0.31423E-02  0.23433E-02  0.11705E-02
  0.54596E-03  0.18424E-02  0.29754E-02  0.37254E-02  0.41258E-02  0.42965E-02
  0.43586E-02  0.43965E-02  0.44624E-02  0.45989E-02  0.48456E-02  0.52141E-02
  0.56629E-02  0.61281E-02  0.65446E-02  0.66073E-02  0.52332E-02  0.82731E-03
  0.10637E-01  0.27657E-01  0.47657E-01  0.64158E-01  0.70586E-01  0.64158E-01
  0.47657E-01  0.27657E-01  0.10637E-01  0.82731E-03  0.52332E-02  0.66073E-02
  0.65446E-02  0.61282E-02  0.56629E-02  0.52141E-02  0.48456E-02  0.45989E-02
  0.44624E-02  0.43965E-02  0.43586E-02  0.42965E-02  0.41258E-02  0.37254E-02
  0.29754E-02  0.18424E-02  0.54596E-03  0.11705E-02  0.23433E-02  0.31423E-02
  0.21852E-02  0.23489E-02  0.23193E-02  0.19858E-02  0.11845E-02  0.49716E-03
  0.19015E-02  0.34222E-02  0.46176E-02  0.53794E-02  0.57616E-02  0.58879E-02
  0.58786E-02  0.58236E-02  0.57935E-02  0.58656E-02  0.61225E-02  0.66003E-02
  0.72342E-02  0.78980E-02  0.85049E-02  0.89027E-02  0.84189E-02  0.55130E-02
  0.19695E-02  0.13998E-01  0.28808E-01  0.41286E-01  0.46192E-01  0.41286E-01
  0.28808E-01  0.13998E-01  0.19695E-02  0.55130E-02  0.84189E-02  0.89027E-02
  0.85049E-02  0.78980E-02  0.72342E-02  0.66004E-02  0.61225E-02  0.58656E-02
  0.57935E-02  0.58236E-02  0.58786E-02  0.58879E-02  0.57616E-02  0.53794E-02
  0.46176E-02  0.34222E-02  0.19015E-02  0.49716E-03  0.11845E-02  0.19858E-02
  0.12517E-02  0.13644E-02  0.12770E-02  0.78414E-03  0.58136E-03  0.20073E-02
  0.37072E-02  0.52637E-02  0.64450E-02  0.71850E-02  0.75383E-02  0.76126E-02
  0.75222E-02  0.73669E-02  0.72329E-02  0.72128E-02  0.74116E-02  0.78943E-02
  0.86115E-02  0.94145E-02  0.10182E-01  0.10853E-01  0.11152E-01  0.10250E-01
  0.69436E-02  0.87429E-03  0.76355E-02  0.14757E-01  0.17601E-01  0.14757E-01
  0.76355E-02  0.87430E-03  0.69436E-02  0.10250E-01  0.11152E-01  0.10853E-01
  0.10182E-01  0.94145E-02  0.86115E-02  0.78943E-02  0.74116E-02  0.72128E-02
  0.72329E-02  0.73669E-02  0.75222E-02  0.76126E-02  0.75383E-02  0.71850E-02
  0.64450E-02  0.52637E-02  0.37072E-02  0.20073E-02  0.58136E-03  0.78414E-03
  0.27742E-02  0.19986E-02  0.11626E-02  0.64151E-03  0.19187E-02  0.37106E-02
  0.55276E-02  0.71024E-02  0.82836E-02  0.90326E-02  0.93841E-02  0.94175E-02
  0.92438E-02  0.89836E-02  0.87427E-02  0.86154E-02  0.87025E-02  0.90878E-02
  0.97683E-02  0.10626E-01  0.11514E-01  0.12352E-01  0.13054E-01  0.13314E-01
  0.12571E-01  0.10431E-01  0.72598E-02  0.43238E-02  0.31195E-02  0.43238E-02
  0.72598E-02  0.10431E-01  0.12571E-01  0.13314E-01  0.13054E-01  0.12352E-01
  0.11514E-01  0.10626E-01  0.97683E-02  0.90878E-02  0.87025E-02  0.86154E-02
  0.87427E-02  0.89836E-02  0.92438E-02  0.94175E-02  0.93841E-02  0.90326E-02
  0.82836E-02  0.71024E-02  0.55276E-02  0.37106E-02  0.19187E-02  0.64151E-03
  0.44721E-02  0.30104E-02  0.15022E-02  0.12813E-02  0.30992E-02  0.51836E-02
  0.71396E-02  0.87815E-02  0.10020E-01  0.10828E-01  0.11217E-01  0.11239E-01
  0.11000E-01  0.10638E-01  0.10283E-01  0.10031E-01  0.99666E-02  0.10177E-01
  0.10704E-01  0.11495E-01  0.12413E-01  0.13321E-01  0.14134E-01  0.14764E-01
  0.15056E-01  0.14860E-01  0.14234E-01  0.13537E-01  0.13232E-01  0.13537E-01
  0.14234E-01  0.14860E-01  0.15056E-01  0.14764E-01  0.14134E-01  0.13321E-01
  0.12413E-01  0.11495E-01  0.10704E-01  0.10177E-01  0.99666E-02  0.10031E-01
  0.10283E-01  0.10638E-01  0.11000E-01  0.11239E-01  0.11217E-01  0.10828E-01
  0.10020E-01  0.87815E-02  0.71396E-02  0.51836E-02  0.30992E-02  0.12813E-02
  0.57593E-02  0.38042E-02  0.17706E-02  0.16842E-02  0.39360E-02  0.63151E-02
  0.84609E-02  0.10235E-01  0.11580E-01  0.12478E-01  0.12931E-01  0.12978E-01
  0.12711E-01  0.12270E-01  0.11793E-01  0.11390E-01  0.11142E-01  0.11123E-01
  0.11399E-01  0.11975E-01  0.12766E-01  0.13623E-01  0.14412E-01  0.15064E-01
  0.15556E-01  0.15880E-01  0.16043E-01  0.16092E-01  0.16097E-01  0.16092E-01
  0.16043E-01  0.15880E-01  0.15556E-01  0.15064E-01  0.14412E-01  0.13623E-01
  0.12766E-01  0.11975E-01  0.11399E-01  0.11123E-01  0.11142E-01  0.11390E-01
  0.11793E-01  0.12270E-01  0.12711E-01  0.12978E-01  0.12931E-01  0.12478E-01
  0.11580E-01  0.10235E-01  0.84609E-02  0.63151E-02  0.39360E-02  0.16842E-02
  0.66559E-02  0.44013E-02  0.19672E-02  0.17931E-02  0.44086E-02  0.70819E-02
  0.94586E-02  0.11412E-01  0.12889E-01  0.13884E-01  0.14411E-01  0.14513E-01
  0.14264E-01  0.13778E-01  0.13189E-01  0.12621E-01  0.12166E-01  0.11890E-01
  0.11850E-01  0.12081E-01  0.12560E-01  0.13189E-01  0.13839E-01  0.14411E-01
  0.14866E-01  0.15203E-01  0.15429E-01  0.15557E-01  0.15597E-01  0.15557E-01
  0.15429E-01  0.15203E-01  0.14866E-01  0.14411E-01  0.13839E-01  0.13189E-01
  0.12560E-01  0.12081E-01  0.11850E-01  0.11890E-01  0.12166E-01  0.12621E-01
  0.13189E-01  0.13778E-01  0.14264E-01  0.14513E-01  0.14411E-01  0.13884E-01
  0.12889E-01  0.11412E-01  0.94586E-02  0.70819E-02  0.44086E-02  0.17931E-02
  0.72815E-02  0.48819E-02  0.21621E-02  0.16452E-02  0.45601E-02  0.75020E-02
  0.10113E-01  0.12260E-01  0.13884E-01  0.14983E-01  0.15594E-01  0.15768E-01
  0.15568E-01  0.15077E-01  0.14408E-01  0.13691E-01  0.13030E-01  0.12489E-01
  0.12108E-01  0.11924E-01  0.11954E-01  0.12169E-01  0.12497E-01  0.12850E-01
  0.13158E-01  0.13377E-01  0.13495E-01  0.13537E-01  0.13544E-01  0.13537E-01
  0.13495E-01  0.13377E-01  0.13158E-01  0.12850E-01  0.12497E-01  0.12169E-01
  0.11954E-01  0.11924E-01  0.12108E-01  0.12489E-01  0.13030E-01  0.13691E-01
  0.14408E-01  0.15077E-01  0.15568E-01  0.15768E-01  0.15594E-01  0.14983E-01
  0.13884E-01  0.12260E-01  0.10113E-01  0.75020E-02  0.45601E-02  0.16452E-02
  0.77302E-02  0.52836E-02  0.23917E-02  0.13166E-02  0.44662E-02  0.76203E-02
  0.10434E-01  0.12766E-01  0.14548E-01  0.15774E-01  0.16485E-01  0.16744E-01
  0.16609E-01  0.16144E-01  0.15441E-01  0.14616E-01  0.13771E-01  0.12971E-01
  0.12251E-01  0.11643E-01  0.11177E-01  0.10864E-01  0.10686E-01  0.10607E-01
  0.10576E-01  0.10541E-01  0.10478E-01  0.10407E-01  0.10374E-01  0.10407E-01
  0.10478E-01  0.10541E-01  0.10576E-01  0.10607E-01  0.10686E-01  0.10864E-01
  0.11177E-01  0.11643E-01  0.12251E-01  0.12971E-01  0.13771E-01  0.14616E-01
  0.15441E-01  0.16144E-01  0.16609E-01  0.16744E-01  0.16485E-01  0.15774E-01
  0.14548E-01  0.12766E-01  0.10434E-01  0.76203E-02  0.44662E-02  0.13166E-02
  0.80718E-02  0.56365E-02  0.26847E-02  0.86251E-03  0.41747E-02  0.74726E-02
  0.10443E-01  0.12941E-01  0.14888E-01  0.16263E-01  0.17100E-01  0.17459E-01
  0.17403E-01  0.16991E-01  0.16298E-01  0.15414E-01  0.14421E-01  0.13381E-01
  0.12335E-01  0.11322E-01  0.10376E-01  0.95146E-02  0.87487E-02  0.80877E-02
  0.75389E-02  0.70978E-02  0.67584E-02  0.65338E-02  0.64535E-02  0.65338E-02
  0.67584E-02  0.70978E-02  0.75389E-02  0.80877E-02  0.87486E-02  0.95146E-02
  0.10376E-01  0.11322E-01  0.12335E-01  0.13381E-01  0.14421E-01  0.15414E-01
  0.16298E-01  0.16991E-01  0.17403E-01  0.17459E-01  0.17100E-01  0.16263E-01
  0.14888E-01  0.12941E-01  0.10443E-01  0.74726E-02  0.41747E-02  0.86251E-03
  0.83557E-02  0.59826E-02  0.30794E-02  0.34269E-03  0.36908E-02  0.70640E-02