       #
       # Generated by the Wannier90 code http://www.wannier.org
       # On 10May2024 at 21:04:43 
       #
CRYSTAL
PRIMVEC
   2.7281430   0.0000000   0.0000000
   0.0000000   2.7281430   0.0000000
   0.0000000   0.0000000   3.7789840
CONVVEC
   2.7281430   0.0000000   0.0000000
   0.0000000   2.7281430   0.0000000
   0.0000000   0.0000000   3.7789840
PRIMCOORD
     2  1
Fe      0.0000000   0.0000000   0.0000000
Pt      1.3640715   1.3640715   1.8894920


BEGIN_BLOCK_DATAGRID_3D
3D_field
BEGIN_DATAGRID_3D_UNKNOWN
    54    54    80
   -2.829185   -2.829185   -3.873459
   5.3552437   0.0000000   0.0000000
   0.0000000   5.3552437   0.0000000
   0.0000000   0.0000000   7.4634934
  0.15453E-02  0.15833E-02  0.13871E-02  0.10200E-02  0.59183E-03  0.22755E-03
  0.17230E-03  0.30362E-03  0.37405E-03  0.40065E-03  0.40874E-03  0.41401E-03
  0.42729E-03  0.45345E-03  0.49028E-03  0.53328E-03  0.57994E-03  0.62764E-03
  0.66978E-03  0.69621E-03  0.69472E-03  0.64423E-03  0.50184E-03  0.23070E-03
  0.41555E-03  0.11185E-02  0.18835E-02  0.24681E-02  0.26668E-02  0.24130E-02
  0.18178E-02  0.11058E-02  0.49573E-03  0.13823E-03  0.16689E-03  0.20272E-03
  0.18373E-03  0.17307E-03  0.20836E-03  0.26791E-03  0.32054E-03  0.34999E-03
  0.34999E-03  0.32054E-03  0.26791E-03  0.20836E-03  0.17307E-03  0.18373E-03
  0.20272E-03  0.16689E-03  0.13823E-03  0.49573E-03  0.11058E-02  0.18178E-02
  0.15833E-02  0.16940E-02  0.15506E-02  0.11945E-02  0.73382E-03  0.31284E-03
  0.20162E-03  0.36011E-03  0.46384E-03  0.51372E-03  0.53451E-03  0.54304E-03
  0.55155E-03  0.56662E-03  0.58811E-03  0.61331E-03  0.64084E-03  0.66903E-03
  0.69251E-03  0.70208E-03  0.68632E-03  0.62709E-03  0.49019E-03  0.25326E-03
  0.35124E-03  0.91347E-03  0.15127E-02  0.19469E-02  0.20704E-02  0.18520E-02
  0.13880E-02  0.84679E-03  0.38968E-03  0.15035E-03  0.17834E-03  0.19970E-03
  0.17698E-03  0.15710E-03  0.17874E-03  0.22817E-03  0.27418E-03  0.30020E-03
  0.30020E-03  0.27418E-03  0.22817E-03  0.17874E-03  0.15709E-03  0.17698E-03
  0.19970E-03  0.17834E-03  0.15035E-03  0.38968E-03  0.84679E-03  0.13880E-02
  0.13871E-02  0.15506E-02  0.14689E-02  0.11603E-02  0.72471E-03  0.31801E-03
  0.24236E-03  0.41484E-03  0.53197E-03  0.59024E-03  0.61144E-03  0.61291E-03
  0.60850E-03  0.60642E-03  0.60820E-03  0.61254E-03  0.61878E-03  0.62617E-03
  0.63095E-03  0.62564E-03  0.60101E-03  0.54512E-03  0.43810E-03  0.26878E-03
  0.23673E-03  0.54855E-03  0.88023E-03  0.10786E-02  0.10837E-02  0.92139E-03
  0.67222E-03  0.42214E-03  0.24156E-03  0.18162E-03  0.18722E-03  0.17594E-03
  0.14267E-03  0.12127E-03  0.14655E-03  0.19753E-03  0.24259E-03  0.26754E-03
  0.26754E-03  0.24259E-03  0.19753E-03  0.14655E-03  0.12127E-03  0.14267E-03
  0.17594E-03  0.18722E-03  0.18162E-03  0.24156E-03  0.42214E-03  0.67222E-03
  0.10200E-02  0.11945E-02  0.11603E-02  0.92097E-03  0.56318E-03  0.25564E-03
  0.29775E-03  0.46596E-03  0.57288E-03  0.62113E-03  0.62893E-03  0.61348E-03
  0.58935E-03  0.56546E-03  0.54446E-03  0.52606E-03  0.51022E-03  0.49719E-03
  0.48532E-03  0.46948E-03  0.44290E-03  0.39974E-03  0.33297E-03  0.24077E-03
  0.19420E-03  0.29827E-03  0.40699E-03  0.39981E-03  0.26610E-03  0.12512E-03
  0.19709E-03  0.26721E-03  0.26088E-03  0.21810E-03  0.17321E-03  0.12839E-03
  0.83708E-04  0.77359E-04  0.12816E-03  0.18783E-03  0.23390E-03  0.25835E-03
  0.25835E-03  0.23390E-03  0.18783E-03  0.12816E-03  0.77359E-04  0.83708E-04
  0.12839E-03  0.17321E-03  0.21810E-03  0.26088E-03  0.26721E-03  0.19709E-03
  0.59183E-03  0.73382E-03  0.72471E-03  0.56318E-03  0.32899E-03  0.23338E-03
  0.37201E-03  0.50676E-03  0.58111E-03  0.60142E-03  0.58292E-03  0.54203E-03
  0.49285E-03  0.44418E-03  0.39953E-03  0.35951E-03  0.32429E-03  0.29481E-03
  0.27174E-03  0.25308E-03  0.23487E-03  0.21547E-03  0.19265E-03  0.16017E-03
  0.15586E-03  0.25159E-03  0.38009E-03  0.46622E-03  0.49561E-03  0.49199E-03
  0.46397E-03  0.39923E-03  0.30408E-03  0.20718E-03  0.12917E-03  0.68721E-04
  0.40987E-04  0.90341E-04  0.15615E-03  0.21458E-03  0.25680E-03  0.27869E-03
  0.27869E-03  0.25680E-03  0.21458E-03  0.15615E-03  0.90341E-04  0.40987E-04
  0.68721E-04  0.12917E-03  0.20718E-03  0.30408E-03  0.39923E-03  0.46397E-03
  0.22755E-03  0.31284E-03  0.31801E-03  0.25564E-03  0.23338E-03  0.33000E-03
  0.44854E-03  0.52657E-03  0.55165E-03  0.53001E-03  0.47523E-03  0.40268E-03
  0.32561E-03  0.25361E-03  0.19286E-03  0.14678E-03  0.11631E-03  0.10079E-03
  0.98566E-04  0.10707E-03  0.12475E-03  0.14888E-03  0.16623E-03  0.15213E-03
  0.10439E-03  0.15737E-03  0.32006E-03  0.47320E-03  0.56055E-03  0.56290E-03
  0.49059E-03  0.37319E-03  0.24793E-03  0.14583E-03  0.84150E-04  0.75562E-04
  0.11109E-03  0.16431E-03  0.21994E-03  0.26779E-03  0.30182E-03  0.31932E-03
  0.31932E-03  0.30182E-03  0.26779E-03  0.21994E-03  0.16431E-03  0.11109E-03
  0.75562E-04  0.84150E-04  0.14583E-03  0.24793E-03  0.37319E-03  0.49059E-03
  0.17230E-03  0.20162E-03  0.24236E-03  0.29775E-03  0.37201E-03  0.44854E-03
  0.50159E-03  0.51374E-03  0.48062E-03  0.40909E-03  0.31271E-03  0.20713E-03
  0.11363E-03  0.90887E-04  0.15031E-03  0.21600E-03  0.26856E-03  0.30548E-03
  0.32741E-03  0.33711E-03  0.33986E-03  0.33996E-03  0.33289E-03  0.30153E-03
  0.22693E-03  0.12019E-03  0.13483E-03  0.26466E-03  0.35469E-03  0.36933E-03
  0.31574E-03  0.22613E-03  0.14139E-03  0.10182E-03  0.11753E-03  0.15451E-03
  0.19738E-03  0.24262E-03  0.28550E-03  0.32095E-03  0.34578E-03  0.35851E-03
  0.35851E-03  0.34578E-03  0.32095E-03  0.28550E-03  0.24262E-03  0.19738E-03
  0.15451E-03  0.11753E-03  0.10182E-03  0.14139E-03  0.22613E-03  0.31574E-03
  0.30362E-03  0.36011E-03  0.41484E-03  0.46596E-03  0.50676E-03  0.52657E-03
  0.51374E-03  0.46059E-03  0.36783E-03  0.24523E-03  0.11046E-03  0.72019E-04
  0.19904E-03  0.32434E-03  0.42969E-03  0.51015E-03  0.56544E-03  0.59733E-03
  0.60789E-03  0.60000E-03  0.57838E-03  0.54789E-03  0.50910E-03  0.45538E-03
  0.37666E-03  0.27022E-03  0.15330E-03  0.85207E-04  0.11398E-03  0.13545E-03
  0.12267E-03  0.10287E-03  0.11240E-03  0.14784E-03  0.18903E-03  0.22891E-03
  0.26627E-03  0.30011E-03  0.32887E-03  0.35129E-03  0.36667E-03  0.37454E-03
  0.37454E-03  0.36667E-03  0.35129E-03  0.32887E-03  0.30011E-03  0.26627E-03
  0.22891E-03  0.18903E-03  0.14784E-03  0.11240E-03  0.10287E-03  0.12267E-03
  0.37405E-03  0.46384E-03  0.53197E-03  0.57288E-03  0.58111E-03  0.55165E-03
  0.48062E-03  0.36783E-03  0.22004E-03  0.57121E-04  0.14099E-03  0.31638E-03
  0.47984E-03  0.62078E-03  0.73183E-03  0.80960E-03  0.85459E-03  0.86933E-03
  0.85717E-03  0.82245E-03  0.77058E-03  0.70679E-03  0.63454E-03  0.55456E-03
  0.46578E-03  0.36854E-03  0.26888E-03  0.18034E-03  0.11958E-03  0.96195E-04
  0.10385E-03  0.13011E-03  0.16554E-03  0.20365E-03  0.24061E-03  0.27375E-03
  0.30103E-03  0.32159E-03  0.33611E-03  0.34588E-03  0.35196E-03  0.35489E-03
  0.35489E-03  0.35196E-03  0.34588E-03  0.33611E-03  0.32159E-03  0.30103E-03
  0.27375E-03  0.24061E-03  0.20365E-03  0.16553E-03  0.13011E-03  0.10385E-03
  0.40065E-03  0.51372E-03  0.59024E-03  0.62113E-03  0.60142E-03  0.53001E-03
  0.40909E-03  0.24523E-03  0.57121E-04  0.17077E-03  0.38285E-03  0.58357E-03
  0.76104E-03  0.90615E-03  0.10126E-02  0.10779E-02  0.11027E-02  0.10898E-02
  0.10444E-02  0.97402E-03  0.88655E-03  0.78871E-03  0.68556E-03  0.58149E-03
  0.48045E-03  0.38549E-03  0.29956E-03  0.22742E-03  0.17562E-03  0.14970E-03
  0.14980E-03  0.16866E-03  0.19686E-03  0.22767E-03  0.25667E-03  0.28045E-03
  0.29708E-03  0.30684E-03  0.31160E-03  0.31332E-03  0.31343E-03  0.31308E-03
  0.31308E-03  0.31343E-03  0.31332E-03  0.31160E-03  0.30684E-03  0.29708E-03
  0.28045E-03  0.25667E-03  0.22767E-03  0.19685E-03  0.16866E-03  0.14980E-03
  0.40874E-03  0.53451E-03  0.61144E-03  0.62893E-03  0.58292E-03  0.47523E-03
  0.31271E-03  0.11046E-03  0.14099E-03  0.38285E-03  0.62026E-03  0.83601E-03
  0.10181E-02  0.11575E-02  0.12487E-02  0.12902E-02  0.12837E-02  0.12334E-02
  0.11469E-02  0.10354E-02  0.91037E-03  0.78088E-03  0.65325E-03  0.53319E-03
  0.42599E-03  0.33477E-03  0.26004E-03  0.20182E-03  0.16171E-03  0.14289E-03
  0.14613E-03  0.16532E-03  0.19156E-03  0.21847E-03  0.24253E-03  0.26233E-03
  0.27830E-03  0.29189E-03  0.30404E-03  0.31460E-03  0.32270E-03  0.32718E-03
  0.32718E-03  0.32270E-03  0.31460E-03  0.30404E-03  0.29189E-03  0.27830E-03
  0.26233E-03  0.24253E-03  0.21847E-03  0.19156E-03  0.16532E-03  0.14613E-03
  0.41401E-03  0.54304E-03  0.61291E-03  0.61348E-03  0.54203E-03  0.40268E-03
  0.20714E-03  0.72018E-04  0.31638E-03  0.58357E-03  0.83601E-03  0.10573E-02
  0.12346E-02  0.13577E-02  0.14216E-02  0.14271E-02  0.13785E-02  0.12832E-02
  0.11520E-02  0.99884E-03  0.83839E-03  0.68208E-03  0.53807E-03  0.41299E-03
  0.31159E-03  0.23428E-03  0.17665E-03  0.13283E-03  0.10059E-03  0.85930E-04
  0.96622E-04  0.12488E-03  0.15869E-03  0.19313E-03  0.22842E-03  0.26687E-03
  0.30980E-03  0.35564E-03  0.40073E-03  0.44092E-03  0.47189E-03  0.48903E-03
  0.48903E-03  0.47189E-03  0.44092E-03  0.40073E-03  0.35564E-03  0.30980E-03
  0.26687E-03  0.22842E-03  0.19313E-03  0.15869E-03  0.12488E-03  0.96621E-04
  0.42729E-03  0.55155E-03  0.60850E-03  0.58935E-03  0.49285E-03  0.32561E-03
  0.11363E-03  0.19904E-03  0.47984E-03  0.76104E-03  0.10181E-02  0.12346E-02
  0.13960E-02  0.14916E-02  0.15170E-02  0.14761E-02  0.13779E-02  0.12340E-02
  0.10578E-02  0.86592E-03  0.67532E-03  0.50104E-03  0.35588E-03  0.25137E-03
  0.19234E-03  0.16525E-03  0.14574E-03  0.11898E-03  0.81535E-04  0.37995E-04
  0.33682E-04  0.83793E-04  0.14029E-03  0.20168E-03  0.27132E-03  0.35100E-03
  0.43844E-03  0.52788E-03  0.61241E-03  0.68534E-03  0.73992E-03  0.76947E-03
  0.76947E-03  0.73992E-03  0.68534E-03  0.61241E-03  0.52788E-03  0.43844E-03
  0.35100E-03  0.27132E-03  0.20168E-03  0.14029E-03  0.83793E-04  0.33681E-04
  0.45345E-03  0.56662E-03  0.60642E-03  0.56546E-03  0.44419E-03  0.25361E-03
  0.90888E-04  0.32434E-03  0.62078E-03  0.90615E-03  0.11575E-02  0.13577E-02
  0.14916E-02  0.15486E-02  0.15270E-02  0.14342E-02  0.12837E-02  0.10906E-02
  0.87158E-03  0.64645E-03  0.43856E-03  0.27851E-03  0.21189E-03  0.23785E-03
  0.27969E-03  0.29709E-03  0.28440E-03  0.24764E-03  0.19650E-03  0.14413E-03
  0.11391E-03  0.13390E-03  0.19557E-03  0.28128E-03  0.38578E-03  0.50597E-03
  0.63605E-03  0.76750E-03  0.89049E-03  0.99503E-03  0.10716E-02  0.11122E-02
  0.11122E-02  0.10716E-02  0.99503E-03  0.89049E-03  0.76750E-03  0.63605E-03
  0.50597E-03  0.38578E-03  0.28128E-03  0.19557E-03  0.13390E-03  0.11391E-03
  0.49028E-03  0.58811E-03  0.60820E-03  0.54446E-03  0.39953E-03  0.19287E-03
  0.15031E-03  0.42969E-03  0.73183E-03  0.10126E-02  0.12487E-02  0.14216E-02
  0.15170E-02  0.15270E-02  0.14536E-02  0.13081E-02  0.11063E-02  0.86624E-03
  0.60985E-03  0.36883E-03  0.21468E-03  0.25805E-03  0.37799E-03  0.47081E-03
  0.51572E-03  0.51293E-03  0.47157E-03  0.40488E-03  0.32738E-03  0.25545E-03
  0.21132E-03  0.22002E-03  0.28473E-03  0.39057E-03  0.52665E-03  0.68505E-03
  0.85663E-03  0.10299E-02  0.11913E-02  0.13270E-02  0.14247E-02  0.14756E-02
  0.14756E-02  0.14247E-02  0.13270E-02  0.11913E-02  0.10299E-02  0.85663E-03
  0.68505E-03  0.52665E-03  0.39057E-03  0.28473E-03  0.22002E-03  0.21132E-03
  0.53328E-03  0.61331E-03  0.61254E-03  0.52606E-03  0.35951E-03  0.14678E-03
  0.21600E-03  0.51015E-03  0.80960E-03  0.10779E-02  0.12902E-02  0.14271E-02
  0.14761E-02  0.14342E-02  0.13081E-02  0.11112E-02  0.86147E-03  0.58143E-03
  0.31014E-03  0.19341E-03  0.35502E-03  0.53957E-03  0.67611E-03  0.75224E-03
  0.76733E-03  0.72860E-03  0.64960E-03  0.54715E-03  0.43865E-03  0.34264E-03
  0.28256E-03  0.28496E-03  0.35686E-03  0.48355E-03  0.65080E-03  0.84723E-03
  0.10605E-02  0.12758E-02  0.14757E-02  0.16424E-02  0.17611E-02  0.18224E-02
  0.18224E-02  0.17611E-02  0.16424E-02  0.14757E-02  0.12758E-02  0.10605E-02
  0.84722E-03  0.65080E-03  0.48355E-03  0.35686E-03  0.28496E-03  0.28256E-03
  0.57994E-03  0.64084E-03  0.61878E-03  0.51022E-03  0.32430E-03  0.11631E-03
  0.26856E-03  0.56544E-03  0.85459E-03  0.11027E-02  0.12837E-02  0.13785E-02
  0.13779E-02  0.12837E-02  0.11063E-02  0.86147E-03  0.57121E-03  0.27721E-03
  0.20331E-03  0.44354E-03  0.68106E-03  0.86313E-03  0.97798E-03  0.10222E-02
  0.99860E-03  0.91742E-03  0.79587E-03  0.65422E-03  0.51252E-03  0.39071E-03
  0.31326E-03  0.30967E-03  0.38949E-03  0.53580E-03  0.73172E-03  0.96356E-03
  0.12162E-02  0.14713E-02  0.17079E-02  0.19050E-02  0.20452E-02  0.21175E-02
  0.21175E-02  0.20452E-02  0.19050E-02  0.17079E-02  0.14713E-02  0.12162E-02
  0.96356E-03  0.73172E-03  0.53580E-03  0.38948E-03  0.30967E-03  0.31326E-03
  0.62764E-03  0.66903E-03  0.62617E-03  0.49719E-03  0.29481E-03  0.10078E-03
  0.30548E-03  0.59733E-03  0.86933E-03  0.10898E-02  0.12334E-02  0.12832E-02
  0.12340E-02  0.10906E-02  0.86624E-03  0.58143E-03  0.27721E-03  0.21083E-03
  0.49355E-03  0.77674E-03  0.10062E-02  0.11660E-02  0.12488E-02  0.12522E-02
  0.11810E-02  0.10497E-02  0.88024E-03  0.69718E-03  0.52289E-03  0.37738E-03
  0.28417E-03  0.27675E-03  0.36676E-03  0.53149E-03  0.75213E-03  0.10142E-02
  0.13006E-02  0.15902E-02  0.18595E-02  0.20848E-02  0.22462E-02  0.23302E-02
  0.23302E-02  0.22462E-02  0.20848E-02  0.18595E-02  0.15902E-02  0.13006E-02
  0.10142E-02  0.75213E-03  0.53149E-03  0.36676E-03  0.27675E-03  0.28417E-03
  0.66978E-03  0.69251E-03  0.63095E-03  0.48532E-03  0.27174E-03  0.98565E-04
  0.32741E-03  0.60789E-03  0.85717E-03  0.10444E-02  0.11469E-02  0.11520E-02
  0.10578E-02  0.87158E-03  0.60985E-03  0.31014E-03  0.20331E-03  0.49355E-03
  0.81054E-03  0.10842E-02  0.12917E-02  0.14187E-02  0.14569E-02  0.14059E-02
  0.12764E-02  0.10896E-02  0.87292E-03  0.65382E-03  0.45555E-03  0.29560E-03
  0.19067E-03  0.17932E-03  0.28053E-03  0.45981E-03  0.69881E-03  0.98398E-03
  0.12967E-02  0.16137E-02  0.19096E-02  0.21591E-02  0.23397E-02  0.24345E-02
  0.24345E-02  0.23397E-02  0.21591E-02  0.19096E-02  0.16137E-02  0.12967E-02
  0.98398E-03  0.69881E-03  0.45981E-03  0.28053E-03  0.17932E-03  0.19067E-03
  0.69621E-03  0.70208E-03  0.62564E-03  0.46948E-03  0.25308E-03  0.10707E-03
  0.33710E-03  0.60000E-03  0.82245E-03  0.97402E-03  0.10354E-02  0.99884E-03
  0.86592E-03  0.64645E-03  0.36883E-03  0.19341E-03  0.44354E-03  0.77674E-03
  0.10842E-02  0.13362E-02  0.15103E-02  0.15894E-02  0.15672E-02  0.14516E-02
  0.12632E-02  0.10298E-02  0.78077E-03  0.54455E-03  0.34693E-03  0.20806E-03
  0.13283E-03  0.11205E-03  0.17550E-03  0.33586E-03  0.57253E-03  0.86617E-03
  0.11940E-02  0.15296E-02  0.18451E-02  0.21130E-02  0.23080E-02  0.24109E-02
  0.24109E-02  0.23080E-02  0.21130E-02  0.18451E-02  0.15296E-02  0.11940E-02
  0.86617E-03  0.57253E-03  0.33586E-03  0.17550E-03  0.11205E-03  0.13284E-03
  0.69472E-03  0.68632E-03  0.60101E-03  0.44290E-03  0.23487E-03  0.12475E-03
  0.33986E-03  0.57838E-03  0.77058E-03  0.88655E-03  0.91037E-03  0.83839E-03
  0.67532E-03  0.43856E-03  0.21468E-03  0.35502E-03  0.68106E-03  0.10062E-02
  0.12917E-02  0.15103E-02  0.16355E-02  0.16516E-02  0.15626E-02  0.13890E-02
  0.11573E-02  0.89424E-03  0.63011E-03  0.40404E-03  0.26614E-03  0.23909E-03
  0.25283E-03  0.24628E-03  0.22010E-03  0.24805E-03  0.41063E-03  0.67564E-03
  0.99625E-03  0.13362E-02  0.16620E-02  0.19408E-02  0.21441E-02  0.22510E-02
  0.22510E-02  0.21441E-02  0.19408E-02  0.16620E-02  0.13362E-02  0.99625E-03
  0.67564E-03  0.41063E-03  0.24805E-03  0.22011E-03  0.24628E-03  0.25283E-03
  0.64423E-03  0.62709E-03  0.54512E-03  0.39974E-03  0.21547E-03  0.14888E-03
  0.33996E-03  0.54789E-03  0.70679E-03  0.78872E-03  0.78088E-03  0.68208E-03
  0.50104E-03  0.27851E-03  0.25805E-03  0.53957E-03  0.86313E-03  0.11660E-02
  0.14187E-02  0.15894E-02  0.16516E-02  0.16011E-02  0.14564E-02  0.12400E-02
  0.96668E-03  0.65762E-03  0.37311E-03  0.25956E-03  0.34079E-03  0.41533E-03
  0.43777E-03  0.42309E-03  0.38331E-03  0.33021E-03  0.32651E-03  0.46845E-03
  0.73133E-03  0.10481E-02  0.13686E-02  0.16492E-02  0.18543E-02  0.19615E-02
  0.19615E-02  0.18543E-02  0.16492E-02  0.13686E-02  0.10481E-02  0.73133E-03
  0.46845E-03  0.32651E-03  0.33021E-03  0.38331E-03  0.42309E-03  0.43777E-03
  0.50184E-03  0.49019E-03  0.43810E-03  0.33297E-03  0.19265E-03  0.16623E-03
  0.33289E-03  0.50910E-03  0.63454E-03  0.68556E-03  0.65325E-03  0.53807E-03
  0.35588E-03  0.21189E-03  0.37799E-03  0.67611E-03  0.97798E-03  0.12488E-02
  0.14569E-02  0.15672E-02  0.15626E-02  0.14564E-02  0.12683E-02  0.99277E-03
  0.61261E-03  0.20437E-03  0.41090E-03  0.73022E-03  0.85186E-03  0.80519E-03
  0.69623E-03  0.60746E-03  0.55531E-03  0.51020E-03  0.44532E-03  0.39937E-03
  0.48232E-03  0.70799E-03  0.99145E-03  0.12592E-02  0.14597E-02  0.15645E-02
  0.15645E-02  0.14597E-02  0.12592E-02  0.99145E-03  0.70798E-03  0.48232E-03
  0.39937E-03  0.44532E-03  0.51021E-03  0.55531E-03  0.60746E-03  0.69623E-03
  0.23070E-03  0.25326E-03  0.26878E-03  0.24077E-03  0.16017E-03  0.15213E-03
  0.30153E-03  0.45538E-03  0.55456E-03  0.58149E-03  0.53319E-03  0.41299E-03
  0.25137E-03  0.23785E-03  0.47081E-03  0.75223E-03  0.10222E-02  0.12522E-02
  0.14059E-02  0.14516E-02  0.13890E-02  0.12400E-02  0.99277E-03  0.57715E-03
  0.13385E-03  0.89587E-03  0.16064E-02  0.19489E-02  0.18249E-02  0.13994E-02
  0.96704E-03  0.72292E-03  0.66426E-03  0.68425E-03  0.67476E-03  0.59408E-03
  0.48190E-03  0.45575E-03  0.59829E-03  0.81402E-03  0.99683E-03  0.10960E-02
  0.10960E-02  0.99683E-03  0.81402E-03  0.59829E-03  0.45575E-03  0.48190E-03
  0.59408E-03  0.67476E-03  0.68425E-03  0.66426E-03  0.72292E-03  0.96704E-03
  0.41555E-03  0.35124E-03  0.23673E-03  0.19420E-03  0.15586E-03  0.10439E-03
  0.22693E-03  0.37666E-03  0.46579E-03  0.48045E-03  0.42599E-03  0.31159E-03
  0.19234E-03  0.27969E-03  0.51572E-03  0.76733E-03  0.99860E-03  0.11810E-02
  0.12764E-02  0.12632E-02  0.11573E-02  0.96668E-03  0.61261E-03  0.13385E-03
  0.11544E-02  0.23908E-02  0.33118E-02  0.34708E-02  0.28155E-02  0.17571E-02
  0.87677E-03  0.50678E-03  0.54171E-03  0.74996E-03  0.90408E-03  0.90619E-03
  0.78097E-03  0.59309E-03  0.43660E-03  0.43214E-03  0.53509E-03  0.61257E-03
  0.61257E-03  0.53509E-03  0.43214E-03  0.43660E-03  0.59309E-03  0.78097E-03
  0.90619E-03  0.90408E-03  0.74997E-03  0.54171E-03  0.50678E-03  0.87677E-03
  0.11185E-02  0.91347E-03  0.54854E-03  0.29827E-03  0.25159E-03  0.15737E-03
  0.12019E-03  0.27022E-03  0.36854E-03  0.38549E-03  0.33477E-03  0.23428E-03
  0.16525E-03  0.29709E-03  0.51293E-03  0.72860E-03  0.91742E-03  0.10497E-02
  0.10896E-02  0.10298E-02  0.89424E-03  0.65762E-03  0.20437E-03  0.89587E-03
  0.23908E-02  0.39451E-02  0.47978E-02  0.43988E-02  0.28863E-02  0.10993E-02
  0.56215E-03  0.71997E-03  0.30148E-03  0.58307E-03  0.10565E-02  0.12253E-02
  0.11585E-02  0.96490E-03  0.71844E-03  0.48402E-03  0.33283E-03  0.28559E-03
  0.28559E-03  0.33283E-03  0.48402E-03  0.71844E-03  0.96490E-03  0.11585E-02
  0.12253E-02  0.10565E-02  0.58307E-03  0.30148E-03  0.71998E-03  0.56215E-03
  0.18835E-02  0.15127E-02  0.88023E-03  0.40699E-03  0.38009E-03  0.32006E-03
  0.13483E-03  0.15330E-03  0.26888E-03  0.29956E-03  0.26004E-03  0.17666E-03
  0.14574E-03  0.28440E-03  0.47157E-03  0.64960E-03  0.79587E-03  0.88024E-03
  0.87292E-03  0.78077E-03  0.63011E-03  0.37311E-03  0.41090E-03  0.16064E-02
  0.33118E-02  0.47978E-02  0.51024E-02  0.37307E-02  0.13269E-02  0.18230E-02
  0.30684E-02  0.27784E-02  0.14411E-02  0.22167E-03  0.10930E-02  0.15000E-02
  0.15124E-02  0.13363E-02  0.10843E-02  0.81757E-03  0.59481E-03  0.46824E-03
  0.46824E-03  0.59481E-03  0.81757E-03  0.10843E-02  0.13363E-02  0.15124E-02
  0.15000E-02  0.10930E-02  0.22167E-03  0.14411E-02  0.27784E-02  0.30684E-02
  0.24681E-02  0.19469E-02  0.10786E-02  0.39980E-03  0.46622E-03  0.47320E-03
  0.26466E-03  0.85207E-04  0.18034E-03  0.22742E-03  0.20182E-03  0.13283E-03
  0.11898E-03  0.24764E-03  0.40488E-03  0.54715E-03  0.65422E-03  0.69718E-03
  0.65382E-03  0.54455E-03  0.40404E-03  0.25956E-03  0.73022E-03  0.19489E-02
  0.34708E-02  0.43988E-02  0.37307E-02  0.14181E-02  0.29248E-02  0.58224E-02
  0.67602E-02  0.54939E-02  0.29908E-02  0.57247E-03  0.10558E-02  0.17112E-02
  0.17918E-02  0.16214E-02  0.13631E-02  0.10857E-02  0.84861E-03  0.71104E-03
  0.71104E-03  0.84861E-03  0.10857E-02  0.13631E-02  0.16214E-02  0.17918E-02
  0.17112E-02  0.10558E-02  0.57247E-03  0.29908E-02  0.54939E-02  0.67602E-02
  0.26668E-02  0.20704E-02  0.10837E-02  0.26610E-03  0.49561E-03  0.56055E-03
  0.35469E-03  0.11398E-03  0.11958E-03  0.17562E-03  0.16171E-03  0.10059E-03
  0.81535E-04  0.19650E-03  0.32738E-03  0.43865E-03  0.51252E-03  0.52289E-03
  0.45555E-03  0.34693E-03  0.26614E-03  0.34079E-03  0.85186E-03  0.18249E-02
  0.28155E-02  0.28863E-02  0.13269E-02  0.29248E-02  0.70809E-02  0.99520E-02
  0.10139E-01  0.77584E-02  0.41717E-02  0.95918E-03  0.10579E-02  0.18613E-02
  0.19585E-02  0.17678E-02  0.14873E-02  0.11905E-02  0.93711E-03  0.78975E-03
  0.78975E-03  0.93711E-03  0.11905E-02  0.14873E-02  0.17678E-02  0.19585E-02
  0.18613E-02  0.10579E-02  0.95918E-03  0.41717E-02  0.77584E-02  0.10139E-01
  0.24130E-02  0.18520E-02  0.92139E-03  0.12512E-03  0.49199E-03  0.56290E-03
  0.36933E-03  0.13545E-03  0.96195E-04  0.14970E-03  0.14289E-03  0.85930E-04
  0.37995E-04  0.14413E-03  0.25545E-03  0.34264E-03  0.39071E-03  0.37737E-03
  0.29560E-03  0.20806E-03  0.23909E-03  0.41533E-03  0.80519E-03  0.13994E-02
  0.17571E-02  0.10993E-02  0.18230E-02  0.58224E-02  0.99520E-02  0.12248E-01
  0.11602E-01  0.84334E-02  0.43109E-02  0.85148E-03  0.11916E-02  0.19451E-02
  0.19776E-02  0.17348E-02  0.14143E-02  0.10860E-02  0.81006E-03  0.65047E-03
  0.65047E-03  0.81006E-03  0.10860E-02  0.14143E-02  0.17348E-02  0.19776E-02
  0.19451E-02  0.11916E-02  0.85148E-03  0.43109E-02  0.84334E-02  0.11602E-01
  0.18178E-02  0.13880E-02  0.67222E-03  0.19709E-03  0.46397E-03  0.49059E-03
  0.31574E-03  0.12267E-03  0.10385E-03  0.14980E-03  0.14613E-03  0.96621E-04
  0.33682E-04  0.11391E-03  0.21132E-03  0.28256E-03  0.31326E-03  0.28417E-03
  0.19067E-03  0.13283E-03  0.25283E-03  0.43777E-03  0.69623E-03  0.96704E-03
  0.87677E-03  0.56215E-03  0.30684E-02  0.67602E-02  0.10139E-01  0.11602E-01
  0.10389E-01  0.71018E-02  0.32448E-02  0.21946E-03  0.14286E-02  0.19258E-02
  0.18184E-02  0.14971E-02  0.11213E-02  0.75242E-03  0.45121E-03  0.27679E-03
  0.27679E-03  0.45121E-03  0.75242E-03  0.11213E-02  0.14971E-02  0.18184E-02
  0.19258E-02  0.14286E-02  0.21946E-03  0.32448E-02  0.71018E-02  0.10389E-01
  0.11058E-02  0.84679E-03  0.42214E-03  0.26720E-03  0.39923E-03  0.37319E-03
  0.22613E-03  0.10287E-03  0.13011E-03  0.16866E-03  0.16532E-03  0.12488E-03
  0.83793E-04  0.13390E-03  0.22002E-03  0.28496E-03  0.30967E-03  0.27675E-03
  0.17932E-03  0.11205E-03  0.24628E-03  0.42309E-03  0.60746E-03  0.72292E-03
  0.50678E-03  0.71998E-03  0.27784E-02  0.54939E-02  0.77584E-02  0.84334E-02
  0.71018E-02  0.43753E-02  0.14590E-02  0.64246E-03  0.16174E-02  0.17465E-02
  0.14654E-02  0.10527E-02  0.61886E-03  0.25687E-03  0.24814E-03  0.38073E-03
  0.38073E-03  0.24814E-03  0.25687E-03  0.61886E-03  0.10527E-02  0.14654E-02
  0.17465E-02  0.16174E-02  0.64246E-03  0.14590E-02  0.43753E-02  0.71018E-02
  0.49573E-03  0.38968E-03  0.24156E-03  0.26088E-03  0.30408E-03  0.24793E-03
  0.14139E-03  0.11240E-03  0.16554E-03  0.19686E-03  0.19156E-03  0.15869E-03
  0.14029E-03  0.19557E-03  0.28473E-03  0.35686E-03  0.38948E-03  0.36676E-03
  0.28053E-03  0.17550E-03  0.22011E-03  0.38331E-03  0.55531E-03  0.66426E-03
  0.54171E-03  0.30148E-03  0.14411E-02  0.29908E-02  0.41717E-02  0.43109E-02
  0.32448E-02  0.14590E-02  0.25134E-03  0.13014E-02  0.15920E-02  0.13708E-02
  0.93030E-03  0.45472E-03  0.32116E-03  0.70919E-03  0.10508E-02  0.12323E-02
  0.12323E-02  0.10508E-02  0.70919E-03  0.32116E-03  0.45472E-03  0.93030E-03
  0.13708E-02  0.15920E-02  0.13014E-02  0.25134E-03  0.14590E-02  0.32448E-02
  0.13823E-03  0.15035E-03  0.18162E-03  0.21810E-03  0.20718E-03  0.14583E-03
  0.10182E-03  0.14784E-03  0.20365E-03  0.22767E-03  0.21847E-03  0.19313E-03
  0.20168E-03  0.28128E-03  0.39057E-03  0.48355E-03  0.53580E-03  0.53149E-03
  0.45981E-03  0.33586E-03  0.24805E-03  0.33021E-03  0.51020E-03  0.68425E-03
  0.74997E-03  0.58307E-03  0.22167E-03  0.57247E-03  0.95918E-03  0.85148E-03
  0.21946E-03  0.64246E-03  0.13014E-02  0.15105E-02  0.12887E-02  0.81700E-03
  0.33122E-03  0.55793E-03  0.11457E-02  0.16869E-02  0.20811E-02  0.22822E-02
  0.22822E-02  0.20811E-02  0.16869E-02  0.11457E-02  0.55793E-03  0.33122E-03
  0.81701E-03  0.12887E-02  0.15105E-02  0.13014E-02  0.64246E-03  0.21946E-03
  0.16689E-03  0.17834E-03  0.18722E-03  0.17321E-03  0.12917E-03  0.84150E-04
  0.11753E-03  0.18903E-03  0.24061E-03  0.25667E-03  0.24253E-03  0.22842E-03
  0.27132E-03  0.38578E-03  0.52665E-03  0.65080E-03  0.73172E-03  0.75213E-03
  0.69881E-03  0.57253E-03  0.41063E-03  0.32651E-03  0.44532E-03  0.67476E-03
  0.90408E-03  0.10565E-02  0.10930E-02  0.10558E-02  0.10579E-02  0.11916E-02
  0.14286E-02  0.16174E-02  0.15920E-02  0.12887E-02  0.77070E-03  0.29109E-03
  0.75546E-03  0.14852E-02  0.22028E-02  0.28160E-02  0.32497E-02  0.34689E-02
  0.34689E-02  0.32497E-02  0.28160E-02  0.22028E-02  0.14852E-02  0.75546E-03
  0.29109E-03  0.77070E-03  0.12887E-02  0.15920E-02  0.16174E-02  0.14286E-02
  0.20272E-03  0.19970E-03  0.17594E-03  0.12839E-03  0.68721E-04  0.75562E-04
  0.15451E-03  0.22891E-03  0.27375E-03  0.28045E-03  0.26233E-03  0.26687E-03
  0.35100E-03  0.50597E-03  0.68505E-03  0.84722E-03  0.96356E-03  0.10142E-02
  0.98398E-03  0.86617E-03  0.67564E-03  0.46845E-03  0.39937E-03  0.59408E-03
  0.90619E-03  0.12253E-02  0.15000E-02  0.17112E-02  0.18613E-02  0.19451E-02
  0.19258E-02  0.17465E-02  0.13708E-02  0.81700E-03  0.29109E-03  0.83234E-03
  0.16781E-02  0.25447E-02  0.33521E-02  0.40208E-02  0.44888E-02  0.47261E-02
  0.47261E-02  0.44888E-02  0.40208E-02  0.33521E-02  0.25447E-02  0.16781E-02
  0.83234E-03  0.29109E-03  0.81701E-03  0.13708E-02  0.17465E-02  0.19258E-02
  0.18373E-03  0.17698E-03  0.14267E-03  0.83709E-04  0.40987E-04  0.11109E-03
  0.19738E-03  0.26627E-03  0.30103E-03  0.29708E-03  0.27830E-03  0.30980E-03
  0.43844E-03  0.63605E-03  0.85663E-03  0.10605E-02  0.12162E-02  0.13006E-02
  0.12967E-02  0.11940E-02  0.99625E-03  0.73133E-03  0.48232E-03  0.48190E-03
  0.78097E-03  0.11585E-02  0.15124E-02  0.17918E-02  0.19585E-02  0.19776E-02
  0.18184E-02  0.14654E-02  0.93030E-03  0.33122E-03  0.75546E-03  0.16781E-02
  0.26671E-02  0.36382E-02  0.45146E-02  0.52280E-02  0.57281E-02  0.59847E-02
  0.59847E-02  0.57281E-02  0.52280E-02  0.45146E-02  0.36382E-02  0.26671E-02
  0.16781E-02  0.75546E-03  0.33122E-03  0.93031E-03  0.14654E-02  0.18184E-02
  0.17307E-03  0.15710E-03  0.12127E-03  0.77359E-04  0.90341E-04  0.16431E-03
  0.24262E-03  0.30011E-03  0.32159E-03  0.30684E-03  0.29189E-03  0.35564E-03
  0.52788E-03  0.76750E-03  0.10299E-02  0.12758E-02  0.14713E-02  0.15902E-02
  0.16137E-02  0.15296E-02  0.13362E-02  0.10481E-02  0.70798E-03  0.45575E-03
  0.59309E-03  0.96490E-03  0.13363E-02  0.16214E-02  0.17678E-02  0.17348E-02
  0.14971E-02  0.10527E-02  0.45472E-03  0.55793E-03  0.14852E-02  0.25447E-02
  0.36382E-02  0.46854E-02  0.56138E-02  0.63660E-02  0.68974E-02  0.71735E-02
  0.71735E-02  0.68974E-02  0.63660E-02  0.56138E-02  0.46854E-02  0.36382E-02
  0.25447E-02  0.14852E-02  0.55793E-03  0.45473E-03  0.10527E-02  0.14971E-02
  0.20836E-03  0.17874E-03  0.14655E-03  0.12816E-03  0.15615E-03  0.21994E-03
  0.28550E-03  0.32887E-03  0.33611E-03  0.31160E-03  0.30404E-03  0.40073E-03
  0.61241E-03  0.89049E-03  0.11913E-02  0.14757E-02  0.17079E-02  0.18595E-02
  0.19096E-02  0.18451E-02  0.16620E-02  0.13686E-02  0.99145E-03  0.59829E-03
  0.43660E-03  0.71844E-03  0.10843E-02  0.13631E-02  0.14873E-02  0.14143E-02
  0.11213E-02  0.61886E-03  0.32117E-03  0.11457E-02  0.22028E-02  0.33521E-02
  0.45146E-02  0.56138E-02  0.65833E-02  0.73700E-02  0.79288E-02  0.82206E-02
  0.82206E-02  0.79288E-02  0.73700E-02  0.65833E-02  0.56138E-02  0.45146E-02
  0.33521E-02  0.22028E-02  0.11457E-02  0.32116E-03  0.61886E-03  0.11213E-02
  0.26791E-03  0.22817E-03  0.19753E-03  0.18783E-03  0.21458E-03  0.26779E-03
  0.32095E-03  0.35129E-03  0.34588E-03  0.31332E-03  0.31460E-03  0.44092E-03
  0.68534E-03  0.99503E-03  0.13270E-02  0.16424E-02  0.19050E-02  0.20848E-02
  0.21591E-02  0.21130E-02  0.19408E-02  0.16492E-02  0.12592E-02  0.81402E-03
  0.43214E-03  0.48402E-03  0.81757E-03  0.10857E-02  0.11905E-02  0.10860E-02
  0.75242E-03  0.25687E-03  0.70919E-03  0.16869E-02  0.28160E-02  0.40208E-02
  0.52280E-02  0.63660E-02  0.73700E-02  0.81843E-02  0.87606E-02  0.90601E-02
  0.90601E-02  0.87606E-02  0.81843E-02  0.73700E-02  0.63660E-02  0.52280E-02
  0.40208E-02  0.28160E-02  0.16869E-02  0.70919E-03  0.25687E-03  0.75242E-03
  0.32054E-03  0.27418E-03  0.24259E-03  0.23390E-03  0.25680E-03  0.30182E-03
  0.34578E-03  0.36667E-03  0.35196E-03  0.31343E-03  0.32270E-03  0.47189E-03
  0.73992E-03  0.10716E-02  0.14247E-02  0.17611E-02  0.20452E-02  0.22462E-02
  0.23397E-02  0.23080E-02  0.21441E-02  0.18543E-02  0.14597E-02  0.99683E-03
  0.53509E-03  0.33283E-03  0.59481E-03  0.84861E-03  0.93711E-03  0.81006E-03
  0.45121E-03  0.24814E-03  0.10508E-02  0.20811E-02  0.32497E-02  0.44888E-02
  0.57281E-02  0.68974E-02  0.79288E-02  0.87606E-02  0.93430E-02  0.96424E-02
  0.96424E-02  0.93430E-02  0.87606E-02  0.79288E-02  0.68974E-02  0.57281E-02
  0.44888E-02  0.32497E-02  0.20811E-02  0.10508E-02  0.24814E-03  0.45121E-03
  0.34999E-03  0.30020E-03  0.26754E-03  0.25835E-03  0.27869E-03  0.31932E-03