       #
       # Generated by the Wannier90 code http://www.wannier.org
       # On 10May2024 at 21:04:43 
       #
CRYSTAL
PRIMVEC
   2.7281430   0.0000000   0.0000000
   0.0000000   2.7281430   0.0000000
   0.0000000   0.0000000   3.7789840
CONVVEC
   2.7281430   0.0000000   0.0000000
   0.0000000   2.7281430   0.0000000
   0.0000000   0.0000000   3.7789840
PRIMCOORD
     2  1
Fe      0.0000000   0.0000000   0.0000000
Pt      1.3640715   1.3640715   1.8894920


BEGIN_BLOCK_DATAGRID_3D
3D_field
BEGIN_DATAGRID_3D_UNKNOWN
    54    54    80
   -2.829185   -2.829185   -3.873459
   5.3552437   0.0000000   0.0000000
   0.0000000   5.3552437   0.0000000
   0.0000000   0.0000000   7.4634934
  0.52200E-02  0.53723E-02  0.45653E-02  0.31020E-02  0.16128E-02  0.10618E-02
  0.12064E-02  0.97602E-03  0.50008E-03  0.69713E-03  0.12349E-02  0.16205E-02
  0.18081E-02  0.18091E-02  0.16394E-02  0.13213E-02  0.88598E-03  0.36914E-03
  0.25993E-03  0.89629E-03  0.15506E-02  0.20454E-02  0.20417E-02  0.11042E-02
  0.12246E-02  0.46006E-02  0.84244E-02  0.11481E-01  0.12653E-01  0.11481E-01
  0.84244E-02  0.46006E-02  0.12246E-02  0.11042E-02  0.20417E-02  0.20454E-02
  0.15506E-02  0.89629E-03  0.25993E-03  0.36914E-03  0.88598E-03  0.13213E-02
  0.16394E-02  0.18091E-02  0.18081E-02  0.16205E-02  0.12349E-02  0.69713E-03
  0.50008E-03  0.97602E-03  0.12064E-02  0.10618E-02  0.16128E-02  0.31020E-02
  0.53723E-02  0.58183E-02  0.52337E-02  0.38202E-02  0.22072E-02  0.13953E-02
  0.14474E-02  0.12348E-02  0.68405E-03  0.60762E-03  0.11470E-02  0.15965E-02
  0.18608E-02  0.19452E-02  0.18618E-02  0.16315E-02  0.12864E-02  0.85268E-03
  0.35017E-03  0.34832E-03  0.98677E-03  0.15919E-02  0.19910E-02  0.20480E-02
  0.17253E-02  0.11223E-02  0.45999E-03  0.23683E-03  0.38270E-03  0.23683E-03
  0.45999E-03  0.11223E-02  0.17253E-02  0.20480E-02  0.19911E-02  0.15919E-02
  0.98677E-03  0.34832E-03  0.35017E-03  0.85268E-03  0.12864E-02  0.16315E-02
  0.18618E-02  0.19452E-02  0.18608E-02  0.15965E-02  0.11470E-02  0.60762E-03
  0.68405E-03  0.12348E-02  0.14474E-02  0.13953E-02  0.22072E-02  0.38202E-02
  0.45653E-02  0.52337E-02  0.49112E-02  0.37235E-02  0.23085E-02  0.16501E-02
  0.16700E-02  0.13971E-02  0.78457E-03  0.59405E-03  0.11349E-02  0.16280E-02
  0.19525E-02  0.21107E-02  0.21103E-02  0.19702E-02  0.17214E-02  0.13842E-02
  0.95438E-03  0.44014E-03  0.29354E-03  0.89579E-03  0.16162E-02  0.26056E-02
  0.41259E-02  0.62689E-02  0.87022E-02  0.10690E-01  0.11463E-01  0.10690E-01
  0.87022E-02  0.62689E-02  0.41259E-02  0.26056E-02  0.16162E-02  0.89579E-03
  0.29355E-03  0.44014E-03  0.95438E-03  0.13842E-02  0.17214E-02  0.19702E-02
  0.21103E-02  0.21107E-02  0.19525E-02  0.16280E-02  0.11349E-02  0.59406E-03
  0.78457E-03  0.13971E-02  0.16700E-02  0.16501E-02  0.23085E-02  0.37235E-02
  0.31020E-02  0.38202E-02  0.37235E-02  0.29245E-02  0.20572E-02  0.18271E-02
  0.18157E-02  0.14268E-02  0.76558E-03  0.62574E-03  0.11937E-02  0.17110E-02
  0.20779E-02  0.22971E-02  0.23724E-02  0.23193E-02  0.21667E-02  0.19307E-02
  0.16010E-02  0.11707E-02  0.67038E-03  0.20435E-03  0.77013E-03  0.21643E-02
  0.46500E-02  0.83303E-02  0.12564E-01  0.16032E-01  0.17380E-01  0.16032E-01
  0.12564E-01  0.83303E-02  0.46500E-02  0.21643E-02  0.77013E-03  0.20435E-03
  0.67038E-03  0.11707E-02  0.16010E-02  0.19307E-02  0.21667E-02  0.23193E-02
  0.23724E-02  0.22971E-02  0.20779E-02  0.17110E-02  0.11937E-02  0.62574E-03
  0.76558E-03  0.14268E-02  0.18157E-02  0.18271E-02  0.20572E-02  0.29245E-02
  0.16128E-02  0.22072E-02  0.23085E-02  0.20572E-02  0.19060E-02  0.19555E-02
  0.18068E-02  0.12873E-02  0.64079E-03  0.72233E-03  0.13203E-02  0.18413E-02
  0.22311E-02  0.24926E-02  0.26270E-02  0.26462E-02  0.25758E-02  0.24302E-02
  0.21999E-02  0.18800E-02  0.15023E-02  0.10867E-02  0.50327E-03  0.76661E-03
  0.30713E-02  0.66746E-02  0.10932E-01  0.14471E-01  0.15855E-01  0.14471E-01
  0.10932E-01  0.66746E-02  0.30713E-02  0.76661E-03  0.50327E-03  0.10867E-02
  0.15023E-02  0.18800E-02  0.21999E-02  0.24302E-02  0.25758E-02  0.26462E-02
  0.26270E-02  0.24926E-02  0.22311E-02  0.18413E-02  0.13203E-02  0.72233E-03
  0.64079E-03  0.12873E-02  0.18068E-02  0.19555E-02  0.19060E-02  0.20572E-02
  0.10618E-02  0.13953E-02  0.16501E-02  0.18271E-02  0.19555E-02  0.19146E-02
  0.15735E-02  0.98001E-03  0.52129E-03  0.91166E-03  0.15046E-02  0.20061E-02
  0.23950E-02  0.26720E-02  0.28366E-02  0.28986E-02  0.28808E-02  0.27998E-02
  0.26527E-02  0.24386E-02  0.21925E-02  0.19586E-02  0.16693E-02  0.10323E-02
  0.42999E-03  0.28175E-02  0.58123E-02  0.83744E-02  0.93896E-02  0.83744E-02
  0.58123E-02  0.28175E-02  0.42999E-03  0.10323E-02  0.16693E-02  0.19586E-02
  0.21925E-02  0.24386E-02  0.26527E-02  0.27998E-02  0.28808E-02  0.28986E-02
  0.28366E-02  0.26720E-02  0.23950E-02  0.20061E-02  0.15046E-02  0.91166E-03
  0.52129E-03  0.98001E-03  0.15735E-02  0.19146E-02  0.19555E-02  0.18271E-02
  0.12064E-02  0.14474E-02  0.16700E-02  0.18157E-02  0.18068E-02  0.15735E-02
  0.11196E-02  0.60716E-03  0.63930E-03  0.11819E-02  0.17265E-02  0.21835E-02
  0.25417E-02  0.27992E-02  0.29559E-02  0.30214E-02  0.30173E-02  0.29661E-02
  0.28773E-02  0.27554E-02  0.26280E-02  0.25487E-02  0.25277E-02  0.24316E-02
  0.19905E-02  0.10028E-02  0.42094E-03  0.16937E-02  0.22161E-02  0.16937E-02
  0.42094E-03  0.10028E-02  0.19905E-02  0.24316E-02  0.25277E-02  0.25487E-02
  0.26280E-02  0.27554E-02  0.28773E-02  0.29661E-02  0.30173E-02  0.30214E-02
  0.29559E-02  0.27992E-02  0.25417E-02  0.21835E-02  0.17265E-02  0.11819E-02
  0.63931E-03  0.60716E-03  0.11196E-02  0.15735E-02  0.18068E-02  0.18157E-02
  0.97602E-03  0.12348E-02  0.13971E-02  0.14268E-02  0.12873E-02  0.98001E-03
  0.60716E-03  0.56150E-03  0.98773E-03  0.14967E-02  0.19611E-02  0.23459E-02
  0.26389E-02  0.28377E-02  0.29457E-02  0.29742E-02  0.29453E-02  0.28887E-02
  0.28294E-02  0.27805E-02  0.27570E-02  0.27958E-02  0.29385E-02  0.31663E-02
  0.33590E-02  0.33621E-02  0.31354E-02  0.28316E-02  0.26916E-02  0.28316E-02
  0.31354E-02  0.33621E-02  0.33590E-02  0.31663E-02  0.29385E-02  0.27958E-02
  0.27570E-02  0.27805E-02  0.28294E-02  0.28887E-02  0.29453E-02  0.29742E-02
  0.29457E-02  0.28377E-02  0.26389E-02  0.23459E-02  0.19612E-02  0.14967E-02
  0.98773E-03  0.56151E-03  0.60716E-03  0.98001E-03  0.12873E-02  0.14268E-02
  0.50008E-03  0.68405E-03  0.78457E-03  0.76558E-03  0.64079E-03  0.52129E-03
  0.63930E-03  0.98773E-03  0.14077E-02  0.18195E-02  0.21803E-02  0.24627E-02
  0.26539E-02  0.27552E-02  0.27769E-02  0.27341E-02  0.26504E-02  0.25609E-02
  0.25041E-02  0.25049E-02  0.25723E-02  0.27165E-02  0.29634E-02  0.33300E-02
  0.37809E-02  0.42217E-02  0.45538E-02  0.47378E-02  0.47930E-02  0.47378E-02
  0.45538E-02  0.42217E-02  0.37809E-02  0.33300E-02  0.29634E-02  0.27165E-02
  0.25723E-02  0.25049E-02  0.25041E-02  0.25609E-02  0.26504E-02  0.27341E-02
  0.27769E-02  0.27552E-02  0.26539E-02  0.24627E-02  0.21803E-02  0.18195E-02
  0.14077E-02  0.98773E-03  0.63931E-03  0.52129E-03  0.64079E-03  0.76558E-03
  0.69713E-03  0.60762E-03  0.59405E-03  0.62574E-03  0.72233E-03  0.91166E-03
  0.11819E-02  0.14967E-02  0.18195E-02  0.21157E-02  0.23518E-02  0.25022E-02
  0.25582E-02  0.25288E-02  0.24327E-02  0.22928E-02  0.21367E-02  0.20014E-02
  0.19309E-02  0.19612E-02  0.21062E-02  0.23600E-02  0.27152E-02  0.31684E-02
  0.37001E-02  0.42522E-02  0.47349E-02  0.50612E-02  0.51758E-02  0.50612E-02
  0.47349E-02  0.42522E-02  0.37001E-02  0.31684E-02  0.27152E-02  0.23600E-02
  0.21062E-02  0.19612E-02  0.19309E-02  0.20014E-02  0.21367E-02  0.22928E-02
  0.24327E-02  0.25288E-02  0.25582E-02  0.25022E-02  0.23518E-02  0.21157E-02
  0.18195E-02  0.14967E-02  0.11819E-02  0.91166E-03  0.72233E-03  0.62574E-03
  0.12349E-02  0.11470E-02  0.11349E-02  0.11937E-02  0.13203E-02  0.15046E-02
  0.17265E-02  0.19612E-02  0.21803E-02  0.23518E-02  0.24447E-02  0.24400E-02
  0.23374E-02  0.21540E-02  0.19188E-02  0.16665E-02  0.14327E-02  0.12541E-02
  0.11709E-02  0.12234E-02  0.14350E-02  0.17978E-02  0.22803E-02  0.28442E-02
  0.34488E-02  0.40410E-02  0.45489E-02  0.48944E-02  0.50170E-02  0.48944E-02
  0.45489E-02  0.40410E-02  0.34488E-02  0.28442E-02  0.22803E-02  0.17978E-02
  0.14350E-02  0.12234E-02  0.11709E-02  0.12541E-02  0.14327E-02  0.16665E-02
  0.19188E-02  0.21540E-02  0.23374E-02  0.24400E-02  0.24447E-02  0.23518E-02
  0.21803E-02  0.19612E-02  0.17265E-02  0.15046E-02  0.13203E-02  0.11937E-02
  0.16205E-02  0.15965E-02  0.16280E-02  0.17110E-02  0.18413E-02  0.20061E-02
  0.21835E-02  0.23459E-02  0.24627E-02  0.25022E-02  0.24400E-02  0.22681E-02
  0.19968E-02  0.16522E-02  0.12747E-02  0.91441E-03  0.61869E-03  0.41876E-03
  0.33158E-03  0.39927E-03  0.67071E-03  0.11329E-02  0.17405E-02  0.24334E-02
  0.31472E-02  0.38165E-02  0.43714E-02  0.47415E-02  0.48718E-02  0.47415E-02
  0.43714E-02  0.38165E-02  0.31472E-02  0.24334E-02  0.17405E-02  0.11329E-02
  0.67071E-03  0.39927E-03  0.33158E-03  0.41876E-03  0.61869E-03  0.91441E-03
  0.12747E-02  0.16522E-02  0.19968E-02  0.22681E-02  0.24400E-02  0.25022E-02
  0.24627E-02  0.23459E-02  0.21835E-02  0.20061E-02  0.18413E-02  0.17110E-02
  0.18081E-02  0.18608E-02  0.19525E-02  0.20779E-02  0.22311E-02  0.23950E-02
  0.25417E-02  0.26389E-02  0.26539E-02  0.25582E-02  0.23374E-02  0.19968E-02
  0.15607E-02  0.10694E-02  0.59243E-03  0.31612E-03  0.45690E-03  0.62339E-03
  0.64343E-03  0.48116E-03  0.16167E-03  0.49605E-03  0.12144E-02  0.20358E-02
  0.28773E-02  0.36582E-02  0.42975E-02  0.47195E-02  0.48673E-02  0.47195E-02
  0.42976E-02  0.36582E-02  0.28773E-02  0.20358E-02  0.12144E-02  0.49605E-03
  0.16167E-03  0.48115E-03  0.64343E-03  0.62339E-03  0.45690E-03  0.31612E-03
  0.59243E-03  0.10694E-02  0.15607E-02  0.19968E-02  0.23374E-02  0.25582E-02
  0.26539E-02  0.26389E-02  0.25417E-02  0.23950E-02  0.22311E-02  0.20779E-02
  0.18091E-02  0.19452E-02  0.21107E-02  0.22971E-02  0.24926E-02  0.26720E-02
  0.27992E-02  0.28377E-02  0.27552E-02  0.25288E-02  0.21540E-02  0.16522E-02
  0.10694E-02  0.50023E-03  0.43077E-03  0.88692E-03  0.12751E-02  0.14836E-02
  0.14741E-02  0.12307E-02  0.75458E-03  0.15932E-03  0.84529E-03  0.18070E-02
  0.27897E-02  0.36977E-02  0.44362E-02  0.49198E-02  0.50882E-02  0.49198E-02
  0.44362E-02  0.36977E-02  0.27897E-02  0.18070E-02  0.84529E-03  0.15932E-03
  0.75457E-03  0.12307E-02  0.14741E-02  0.14836E-02  0.12751E-02  0.88692E-03
  0.43077E-03  0.50023E-03  0.10694E-02  0.16522E-02  0.21540E-02  0.25288E-02
  0.27552E-02  0.28377E-02  0.27992E-02  0.26720E-02  0.24926E-02  0.22971E-02
  0.16394E-02  0.18618E-02  0.21103E-02  0.23724E-02  0.26270E-02  0.28366E-02
  0.29559E-02  0.29457E-02  0.27769E-02  0.24327E-02  0.19188E-02  0.12747E-02
  0.59243E-03  0.43077E-03  0.10370E-02  0.16174E-02  0.20385E-02  0.22371E-02
  0.21711E-02  0.18214E-02  0.11974E-02  0.36424E-03  0.75638E-03  0.18862E-02
  0.30311E-02  0.40792E-02  0.49223E-02  0.54682E-02  0.56569E-02  0.54682E-02
  0.49223E-02  0.40792E-02  0.30311E-02  0.18862E-02  0.75638E-03  0.36424E-03
  0.11974E-02  0.18214E-02  0.21711E-02  0.22371E-02  0.20385E-02  0.16174E-02
  0.10370E-02  0.43077E-03  0.59243E-03  0.12747E-02  0.19188E-02  0.24327E-02
  0.27769E-02  0.29457E-02  0.29559E-02  0.28366E-02  0.26270E-02  0.23724E-02
  0.13213E-02  0.16315E-02  0.19702E-02  0.23193E-02  0.26462E-02  0.28986E-02
  0.30214E-02  0.29742E-02  0.27341E-02  0.22928E-02  0.16665E-02  0.91441E-03
  0.31612E-03  0.88692E-03  0.16174E-02  0.22237E-02  0.26336E-02  0.27862E-02
  0.26329E-02  0.21509E-02  0.13593E-02  0.37758E-03  0.10132E-02  0.23328E-02
  0.36567E-02  0.48572E-02  0.58131E-02  0.64260E-02  0.66366E-02  0.64260E-02
  0.58131E-02  0.48572E-02  0.36567E-02  0.23328E-02  0.10132E-02  0.37758E-03
  0.13593E-02  0.21509E-02  0.26329E-02  0.27862E-02  0.26336E-02  0.22237E-02
  0.16174E-02  0.88692E-03  0.31612E-03  0.91441E-03  0.16665E-02  0.22928E-02
  0.27341E-02  0.29742E-02  0.30214E-02  0.28986E-02  0.26462E-02  0.23193E-02
  0.88598E-03  0.12864E-02  0.17214E-02  0.21667E-02  0.25758E-02  0.28808E-02
  0.30173E-02  0.29453E-02  0.26504E-02  0.21367E-02  0.14327E-02  0.61869E-03
  0.45690E-03  0.12751E-02  0.20385E-02  0.26336E-02  0.29924E-02  0.30546E-02
  0.27734E-02  0.21327E-02  0.11706E-02  0.38864E-03  0.16399E-02  0.31580E-02
  0.46639E-02  0.60213E-02  0.70975E-02  0.77853E-02  0.80211E-02  0.77853E-02
  0.70975E-02  0.60213E-02  0.46639E-02  0.31580E-02  0.16399E-02  0.38864E-03
  0.11706E-02  0.21327E-02  0.27734E-02  0.30546E-02  0.29924E-02  0.26336E-02
  0.20385E-02  0.12751E-02  0.45690E-03  0.61869E-03  0.14327E-02  0.21367E-02
  0.26504E-02  0.29453E-02  0.30173E-02  0.28808E-02  0.25758E-02  0.21667E-02
  0.36914E-03  0.85268E-03  0.13842E-02  0.19307E-02  0.24302E-02  0.27998E-02
  0.29661E-02  0.28887E-02  0.25609E-02  0.20014E-02  0.12541E-02  0.41876E-03
  0.62339E-03  0.14836E-02  0.22371E-02  0.27862E-02  0.30546E-02  0.29830E-02
  0.25379E-02  0.17231E-02  0.65246E-03  0.10733E-02  0.26658E-02  0.43790E-02
  0.60571E-02  0.75600E-02  0.87493E-02  0.95102E-02  0.97716E-02  0.95102E-02
  0.87493E-02  0.75600E-02  0.60571E-02  0.43790E-02  0.26658E-02  0.10733E-02
  0.65246E-03  0.17231E-02  0.25379E-02  0.29830E-02  0.30546E-02  0.27862E-02
  0.22371E-02  0.14836E-02  0.62339E-03  0.41876E-03  0.12541E-02  0.20014E-02
  0.25609E-02  0.28887E-02  0.29661E-02  0.27998E-02  0.24302E-02  0.19307E-02
  0.25993E-03  0.35017E-03  0.95438E-03  0.16010E-02  0.21999E-02  0.26527E-02
  0.28773E-02  0.28294E-02  0.25041E-02  0.19309E-02  0.11709E-02  0.33158E-03
  0.64343E-03  0.14741E-02  0.21711E-02  0.26329E-02  0.27734E-02  0.25379E-02
  0.19134E-02  0.95426E-03  0.74392E-03  0.22780E-02  0.40980E-02  0.59887E-02
  0.78065E-02  0.94122E-02  0.10674E-01  0.11480E-01  0.11758E-01  0.11480E-01
  0.10674E-01  0.94122E-02  0.78065E-02  0.59887E-02  0.40980E-02  0.22780E-02
  0.74392E-03  0.95426E-03  0.19134E-02  0.25379E-02  0.27734E-02  0.26329E-02
  0.21711E-02  0.14741E-02  0.64343E-03  0.33158E-03  0.11709E-02  0.19309E-02
  0.25041E-02  0.28294E-02  0.28773E-02  0.26527E-02  0.21999E-02  0.16010E-02
  0.89629E-03  0.34832E-03  0.44014E-03  0.11707E-02  0.18800E-02  0.24386E-02
  0.27554E-02  0.27805E-02  0.25049E-02  0.19612E-02  0.12234E-02  0.39927E-03
  0.48115E-03  0.12307E-02  0.18214E-02  0.21508E-02  0.21327E-02  0.17231E-02
  0.95426E-03  0.65228E-03  0.20561E-02  0.38769E-02  0.58709E-02  0.78796E-02
  0.97551E-02  0.11369E-01  0.12615E-01  0.13404E-01  0.13675E-01  0.13404E-01
  0.12615E-01  0.11369E-01  0.97551E-02  0.78796E-02  0.58709E-02  0.38769E-02
  0.20561E-02  0.65228E-03  0.95426E-03  0.17231E-02  0.21327E-02  0.21509E-02
  0.18214E-02  0.12307E-02  0.48115E-03  0.39927E-03  0.12234E-02  0.19612E-02
  0.25049E-02  0.27805E-02  0.27554E-02  0.24386E-02  0.18800E-02  0.11707E-02
  0.15506E-02  0.98677E-03  0.29355E-03  0.67038E-03  0.15023E-02  0.21925E-02
  0.26280E-02  0.27570E-02  0.25723E-02  0.21062E-02  0.14350E-02  0.67071E-03
  0.16167E-03  0.75457E-03  0.11974E-02  0.13593E-02  0.11706E-02  0.65246E-03
  0.74392E-03  0.20561E-02  0.37859E-02  0.57627E-02  0.78330E-02  0.98320E-02
  0.11616E-01  0.13082E-01  0.14169E-01  0.14837E-01  0.15062E-01  0.14837E-01
  0.14169E-01  0.13082E-01  0.11616E-01  0.98320E-02  0.78330E-02  0.57627E-02
  0.37859E-02  0.20561E-02  0.74392E-03  0.65246E-03  0.11706E-02  0.13593E-02
  0.11974E-02  0.75457E-03  0.16167E-03  0.67071E-03  0.14350E-02  0.21062E-02
  0.25723E-02  0.27570E-02  0.26280E-02  0.21925E-02  0.15023E-02  0.67038E-03
  0.20454E-02  0.15919E-02  0.89579E-03  0.20435E-03  0.10867E-02  0.19586E-02
  0.25487E-02  0.27958E-02  0.27165E-02  0.23600E-02  0.17978E-02  0.11329E-02
  0.49605E-03  0.15932E-03  0.36424E-03  0.37758E-03  0.38864E-03  0.10733E-02
  0.22780E-02  0.38769E-02  0.57627E-02  0.77893E-02  0.97853E-02  0.11584E-01
  0.13056E-01  0.14132E-01  0.14819E-01  0.15179E-01  0.15288E-01  0.15179E-01
  0.14819E-01  0.14132E-01  0.13056E-01  0.11584E-01  0.97853E-02  0.77893E-02
  0.57627E-02  0.38769E-02  0.22780E-02  0.10733E-02  0.38864E-03  0.37758E-03
  0.36424E-03  0.15932E-03  0.49605E-03  0.11329E-02  0.17978E-02  0.23600E-02
  0.27165E-02  0.27958E-02  0.25487E-02  0.19586E-02  0.10866E-02  0.20435E-03
  0.20417E-02  0.19911E-02  0.16162E-02  0.77013E-03  0.50327E-03  0.16693E-02
  0.25277E-02  0.29385E-02  0.29634E-02  0.27152E-02  0.22803E-02  0.17405E-02
  0.12144E-02  0.84529E-03  0.75638E-03  0.10132E-02  0.16399E-02  0.26658E-02
  0.40980E-02  0.58709E-02  0.78330E-02  0.97853E-02  0.11529E-01  0.12887E-01
  0.13720E-01  0.13983E-01  0.13802E-01  0.13474E-01  0.13318E-01  0.13474E-01
  0.13802E-01  0.13983E-01  0.13720E-01  0.12887E-01  0.11529E-01  0.97853E-02
  0.78330E-02  0.58709E-02  0.40980E-02  0.26658E-02  0.16399E-02  0.10132E-02
  0.75638E-03  0.84529E-03  0.12144E-02  0.17405E-02  0.22803E-02  0.27152E-02
  0.29634E-02  0.29385E-02  0.25277E-02  0.16693E-02  0.50327E-03  0.77013E-03
  0.11042E-02  0.20480E-02  0.26056E-02  0.21643E-02  0.76661E-03  0.10323E-02
  0.24316E-02  0.31663E-02  0.33300E-02  0.31684E-02  0.28442E-02  0.24334E-02
  0.20358E-02  0.18071E-02  0.18862E-02  0.23328E-02  0.31580E-02  0.43790E-02
  0.59887E-02  0.78796E-02  0.98320E-02  0.11584E-01  0.12887E-01  0.13492E-01
  0.13165E-01  0.11869E-01  0.99867E-02  0.83163E-02  0.76539E-02  0.83163E-02
  0.99867E-02  0.11869E-01  0.13165E-01  0.13492E-01  0.12887E-01  0.11584E-01
  0.98320E-02  0.78796E-02  0.59887E-02  0.43790E-02  0.31580E-02  0.23328E-02
  0.18862E-02  0.18071E-02  0.20358E-02  0.24334E-02  0.28442E-02  0.31684E-02
  0.33300E-02  0.31663E-02  0.24316E-02  0.10323E-02  0.76661E-03  0.21643E-02
  0.12246E-02  0.17253E-02  0.41259E-02  0.46500E-02  0.30713E-02  0.42999E-03
  0.19905E-02  0.33590E-02  0.37809E-02  0.37001E-02  0.34488E-02  0.31472E-02
  0.28773E-02  0.27897E-02  0.30311E-02  0.36567E-02  0.46639E-02  0.60571E-02
  0.78065E-02  0.97551E-02  0.11616E-01  0.13056E-01  0.13720E-01  0.13165E-01
  0.10952E-01  0.71265E-02  0.33120E-02  0.40521E-02  0.53305E-02  0.40521E-02
  0.33120E-02  0.71265E-02  0.10952E-01  0.13165E-01  0.13720E-01  0.13056E-01
  0.11616E-01  0.97551E-02  0.78065E-02  0.60571E-02  0.46639E-02  0.36567E-02
  0.30311E-02  0.27897E-02  0.28773E-02  0.31472E-02  0.34488E-02  0.37001E-02
  0.37809E-02  0.33590E-02  0.19905E-02  0.42999E-03  0.30713E-02  0.46500E-02
  0.46006E-02  0.11223E-02  0.62689E-02  0.83303E-02  0.66746E-02  0.28175E-02
  0.10028E-02  0.33621E-02  0.42217E-02  0.42522E-02  0.40410E-02  0.38165E-02
  0.36582E-02  0.36977E-02  0.40792E-02  0.48572E-02  0.60213E-02  0.75600E-02
  0.94122E-02  0.11369E-01  0.13082E-01  0.14132E-01  0.13983E-01  0.11869E-01
  0.71265E-02  0.33026E-02  0.11164E-01  0.18710E-01  0.21688E-01  0.18710E-01
  0.11164E-01  0.33026E-02  0.71265E-02  0.11869E-01  0.13983E-01  0.14132E-01
  0.13082E-01  0.11369E-01  0.94122E-02  0.75600E-02  0.60213E-02  0.48572E-02
  0.40792E-02  0.36977E-02  0.36582E-02  0.38165E-02  0.40410E-02  0.42522E-02
  0.42217E-02  0.33621E-02  0.10028E-02  0.28175E-02  0.66746E-02  0.83303E-02
  0.84244E-02  0.45999E-03  0.87022E-02  0.12564E-01  0.10932E-01  0.58123E-02
  0.42094E-03  0.31354E-02  0.45538E-02  0.47349E-02  0.45489E-02  0.43714E-02
  0.42976E-02  0.44362E-02  0.49223E-02  0.58131E-02  0.70975E-02  0.87493E-02
  0.10674E-01  0.12615E-01  0.14169E-01  0.14819E-01  0.13802E-01  0.99867E-02
  0.33120E-02  0.11164E-01  0.25049E-01  0.36553E-01  0.41033E-01  0.36553E-01
  0.25049E-01  0.11164E-01  0.33120E-02  0.99867E-02  0.13802E-01  0.14819E-01
  0.14169E-01  0.12615E-01  0.10674E-01  0.87493E-02  0.70975E-02  0.58131E-02
  0.49223E-02  0.44362E-02  0.42976E-02  0.43714E-02  0.45489E-02  0.47349E-02
  0.45538E-02  0.31354E-02  0.42094E-03  0.58123E-02  0.10932E-01  0.12564E-01
  0.11481E-01  0.23683E-03  0.10690E-01  0.16032E-01  0.14471E-01  0.83744E-02
  0.16937E-02  0.28316E-02  0.47378E-02  0.50612E-02  0.48944E-02  0.47415E-02
  0.47195E-02  0.49198E-02  0.54682E-02  0.64260E-02  0.77853E-02  0.95102E-02
  0.11480E-01  0.13404E-01  0.14837E-01  0.15179E-01  0.13474E-01  0.83163E-02
  0.40521E-02  0.18710E-01  0.36553E-01  0.51158E-01  0.56825E-01  0.51158E-01
  0.36553E-01  0.18710E-01  0.40521E-02  0.83163E-02  0.13474E-01  0.15179E-01
  0.14837E-01  0.13404E-01  0.11480E-01  0.95102E-02  0.77853E-02  0.64260E-02
  0.54682E-02  0.49198E-02  0.47195E-02  0.47415E-02  0.48944E-02  0.50612E-02
  0.47378E-02  0.28316E-02  0.16937E-02  0.83744E-02  0.14471E-01  0.16032E-01
  0.12653E-01  0.38271E-03  0.11463E-01  0.17380E-01  0.15855E-01  0.93896E-02
  0.22161E-02  0.26916E-02  0.47930E-02  0.51758E-02  0.50170E-02  0.48718E-02
  0.48673E-02  0.50882E-02  0.56569E-02  0.66366E-02  0.80211E-02  0.97716E-02
  0.11758E-01  0.13675E-01  0.15062E-01  0.15288E-01  0.13318E-01  0.76539E-02
  0.53305E-02  0.21688E-01  0.41033E-01  0.56825E-01  0.62948E-01  0.56825E-01
  0.41033E-01  0.21688E-01  0.53305E-02  0.76539E-02  0.13318E-01  0.15288E-01
  0.15062E-01  0.13675E-01  0.11758E-01  0.97716E-02  0.80211E-02  0.66366E-02
  0.56569E-02  0.50882E-02  0.48673E-02  0.48718E-02  0.50170E-02  0.51758E-02
  0.47930E-02  0.26916E-02  0.22161E-02  0.93896E-02  0.15855E-01  0.17380E-01
  0.11481E-01  0.23683E-03  0.10690E-01  0.16032E-01  0.14471E-01  0.83744E-02
  0.16937E-02  0.28316E-02  0.47378E-02  0.50612E-02  0.48944E-02  0.47415E-02
  0.47195E-02  0.49198E-02  0.54682E-02  0.64260E-02  0.77853E-02  0.95102E-02
  0.11480E-01  0.13404E-01  0.14837E-01  0.15179E-01  0.13474E-01  0.83163E-02
  0.40521E-02  0.18710E-01  0.36553E-01  0.51158E-01  0.56825E-01  0.51158E-01
  0.36553E-01  0.18710E-01  0.40521E-02  0.83163E-02  0.13474E-01  0.15179E-01
  0.14837E-01  0.13404E-01  0.11480E-01  0.95102E-02  0.77853E-02  0.64260E-02
  0.54682E-02  0.49198E-02  0.47195E-02  0.47415E-02  0.48944E-02  0.50612E-02
  0.47378E-02  0.28316E-02  0.16937E-02  0.83744E-02  0.14471E-01  0.16032E-01
  0.84244E-02  0.45999E-03  0.87022E-02  0.12564E-01  0.10932E-01  0.58123E-02
  0.42094E-03  0.31354E-02  0.45538E-02  0.47349E-02  0.45489E-02  0.43714E-02
  0.42975E-02  0.44362E-02  0.49223E-02  0.58131E-02  0.70975E-02  0.87493E-02
  0.10674E-01  0.12615E-01  0.14169E-01  0.14819E-01  0.13802E-01  0.99867E-02
  0.33120E-02  0.11164E-01  0.25049E-01  0.36553E-01  0.41033E-01  0.36553E-01
  0.25049E-01  0.11164E-01  0.33120E-02  0.99867E-02  0.13802E-01  0.14819E-01
  0.14169E-01  0.12615E-01  0.10674E-01  0.87493E-02  0.70975E-02  0.58131E-02
  0.49223E-02  0.44362E-02  0.42975E-02  0.43714E-02  0.45489E-02  0.47349E-02
  0.45538E-02  0.31354E-02  0.42094E-03  0.58123E-02  0.10932E-01  0.12564E-01
  0.46006E-02  0.11223E-02  0.62689E-02  0.83303E-02  0.66746E-02  0.28175E-02
  0.10028E-02  0.33621E-02  0.42217E-02  0.42522E-02  0.40410E-02  0.38165E-02
  0.36582E-02  0.36977E-02  0.40792E-02  0.48572E-02  0.60213E-02  0.75600E-02
  0.94122E-02  0.11369E-01  0.13082E-01  0.14132E-01  0.13983E-01  0.11869E-01
  0.71265E-02  0.33026E-02  0.11164E-01  0.18710E-01  0.21688E-01  0.18710E-01
  0.11164E-01  0.33026E-02  0.71265E-02  0.11869E-01  0.13983E-01  0.14132E-01
  0.13082E-01  0.11369E-01  0.94122E-02  0.75600E-02  0.60213E-02  0.48572E-02
  0.40792E-02  0.36977E-02  0.36582E-02  0.38165E-02  0.40410E-02  0.42522E-02
  0.42217E-02  0.33621E-02  0.10028E-02  0.28175E-02  0.66746E-02  0.83303E-02
  0.12246E-02  0.17253E-02  0.41259E-02  0.46500E-02  0.30713E-02  0.42999E-03
  0.19905E-02  0.33590E-02  0.37809E-02  0.37001E-02  0.34488E-02  0.31472E-02
  0.28773E-02  0.27897E-02  0.30311E-02  0.36567E-02  0.46639E-02  0.60571E-02
  0.78065E-02  0.97551E-02  0.11616E-01  0.13056E-01  0.13720E-01  0.13165E-01
  0.10952E-01  0.71265E-02  0.33120E-02  0.40521E-02  0.53305E-02  0.40521E-02
  0.33120E-02  0.71265E-02  0.10952E-01  0.13165E-01  0.13720E-01  0.13056E-01
  0.11616E-01  0.97551E-02  0.78065E-02  0.60571E-02  0.46639E-02  0.36567E-02
  0.30311E-02  0.27897E-02  0.28773E-02  0.31472E-02  0.34488E-02  0.37001E-02
  0.37809E-02  0.33590E-02  0.19905E-02  0.42999E-03  0.30713E-02  0.46500E-02
  0.11042E-02  0.20480E-02  0.26056E-02  0.21643E-02  0.76661E-03  0.10323E-02
  0.24316E-02  0.31663E-02  0.33300E-02  0.31684E-02  0.28442E-02  0.24334E-02
  0.20358E-02  0.18070E-02  0.18862E-02  0.23328E-02  0.31580E-02  0.43790E-02
  0.59887E-02  0.78796E-02  0.98320E-02  0.11584E-01  0.12887E-01  0.13492E-01
  0.13165E-01  0.11869E-01  0.99867E-02  0.83163E-02  0.76539E-02  0.83163E-02
  0.99867E-02  0.11869E-01  0.13165E-01  0.13492E-01  0.12887E-01  0.11584E-01
  0.98320E-02  0.78796E-02  0.59887E-02  0.43790E-02  0.31580E-02  0.23328E-02
  0.18862E-02  0.18070E-02  0.20358E-02  0.24334E-02  0.28442E-02  0.31684E-02
  0.33300E-02  0.31663E-02  0.24316E-02  0.10323E-02  0.76661E-03  0.21643E-02
  0.20417E-02  0.19911E-02  0.16162E-02  0.77013E-03  0.50326E-03  0.16693E-02
  0.25277E-02  0.29385E-02  0.29634E-02  0.27152E-02  0.22803E-02  0.17405E-02
  0.12144E-02  0.84529E-03  0.75638E-03  0.10132E-02  0.16399E-02  0.26658E-02
  0.40980E-02  0.58709E-02  0.78330E-02  0.97853E-02  0.11529E-01  0.12887E-01
  0.13720E-01  0.13983E-01  0.13802E-01  0.13474E-01  0.13318E-01  0.13474E-01
  0.13802E-01  0.13983E-01  0.13720E-01  0.12887E-01  0.11529E-01  0.97853E-02
  0.78330E-02  0.58709E-02  0.40980E-02  0.26658E-02  0.16399E-02  0.10132E-02
  0.75638E-03  0.84529E-03  0.12144E-02  0.17405E-02  0.22803E-02  0.27152E-02
  0.29634E-02  0.29385E-02  0.25277E-02  0.16693E-02  0.50327E-03  0.77013E-03
  0.20454E-02  0.15919E-02  0.89579E-03  0.20435E-03  0.10866E-02  0.19586E-02
  0.25487E-02  0.27958E-02  0.27165E-02  0.23600E-02  0.17978E-02  0.11329E-02
  0.49605E-03  0.15932E-03  0.36424E-03  0.37758E-03  0.38864E-03  0.10733E-02
  0.22780E-02  0.38769E-02  0.57627E-02  0.77893E-02  0.97853E-02  0.11584E-01
  0.13056E-01  0.14132E-01  0.14819E-01  0.15179E-01  0.15288E-01  0.15179E-01
  0.14819E-01  0.14132E-01  0.13056E-01  0.11584E-01  0.97853E-02  0.77893E-02
  0.57627E-02  0.38769E-02  0.22780E-02  0.10733E-02  0.38864E-03  0.37758E-03
  0.36424E-03  0.15932E-03  0.49605E-03  0.11329E-02  0.17978E-02  0.23600E-02
  0.27165E-02  0.27958E-02  0.25487E-02  0.19586E-02  0.10867E-02  0.20435E-03
  0.15506E-02  0.98677E-03  0.29355E-03  0.67038E-03  0.15023E-02  0.21925E-02
  0.26280E-02  0.27570E-02  0.25723E-02  0.21062E-02  0.14350E-02  0.67071E-03
  0.16167E-03  0.75458E-03  0.11974E-02  0.13593E-02  0.11706E-02  0.65246E-03
  0.74392E-03  0.20561E-02  0.37859E-02  0.57627E-02  0.78330E-02  0.98320E-02
  0.11616E-01  0.13082E-01  0.14169E-01  0.14837E-01  0.15062E-01  0.14837E-01
  0.14169E-01  0.13082E-01  0.11616E-01  0.98320E-02  0.78330E-02  0.57627E-02
  0.37859E-02  0.20561E-02  0.74392E-03  0.65245E-03  0.11706E-02  0.13593E-02
  0.11974E-02  0.75457E-03  0.16167E-03  0.67071E-03  0.14350E-02  0.21062E-02
  0.25723E-02  0.27570E-02  0.26280E-02  0.21925E-02  0.15023E-02  0.67038E-03
  0.89629E-03  0.34832E-03  0.44014E-03  0.11707E-02  0.18800E-02  0.24386E-02
  0.27554E-02  0.27805E-02  0.25049E-02  0.19612E-02  0.12234E-02  0.39927E-03
  0.48116E-03  0.12307E-02  0.18214E-02  0.21509E-02  0.21327E-02  0.17231E-02
  0.95426E-03  0.65228E-03  0.20561E-02  0.38769E-02  0.58709E-02  0.78796E-02
  0.97551E-02  0.11369E-01  0.12615E-01  0.13404E-01  0.13675E-01  0.13404E-01
  0.12615E-01  0.11369E-01  0.97551E-02  0.78796E-02  0.58709E-02  0.38769E-02
  0.20561E-02  0.65228E-03  0.95426E-03  0.17231E-02  0.21327E-02  0.21508E-02
  0.18214E-02  0.12307E-02  0.48115E-03  0.39927E-03  0.12234E-02  0.19612E-02
  0.25049E-02  0.27805E-02  0.27554E-02  0.24386E-02  0.18800E-02  0.11707E-02
  0.25993E-03  0.35017E-03  0.95438E-03  0.16010E-02  0.21999E-02  0.26527E-02
  0.28773E-02  0.28294E-02  0.25041E-02  0.19309E-02  0.11709E-02  0.33158E-03
  0.64343E-03  0.14741E-02  0.21711E-02  0.26329E-02  0.27734E-02  0.25379E-02
  0.19134E-02  0.95426E-03  0.74392E-03  0.22780E-02  0.40980E-02  0.59887E-02
  0.78065E-02  0.94122E-02  0.10674E-01  0.11480E-01  0.11758E-01  0.11480E-01
  0.10674E-01  0.94122E-02  0.78065E-02  0.59887E-02  0.40980E-02  0.22780E-02
  0.74392E-03  0.95426E-03  0.19134E-02  0.25379E-02  0.27734E-02  0.26329E-02
  0.21711E-02  0.14741E-02  0.64343E-03  0.33158E-03  0.11709E-02  0.19309E-02
  0.25041E-02  0.28294E-02  0.28773E-02  0.26527E-02  0.21999E-02  0.16010E-02
  0.36914E-03  0.85268E-03  0.13842E-02  0.19307E-02  0.24302E-02  0.27998E-02
  0.29661E-02  0.28887E-02  0.25609E-02  0.20014E-02  0.12541E-02  0.41876E-03
  0.62339E-03  0.14836E-02  0.22371E-02  0.27862E-02  0.30546E-02  0.29830E-02
  0.25379E-02  0.17231E-02  0.65246E-03  0.10733E-02  0.26658E-02  0.43790E-02
  0.60571E-02  0.75600E-02  0.87493E-02  0.95102E-02  0.97716E-02  0.95102E-02
  0.87493E-02  0.75600E-02  0.60571E-02  0.43790E-02  0.26658E-02  0.10733E-02
  0.65246E-03  0.17231E-02  0.25379E-02  0.29830E-02  0.30546E-02  0.27862E-02
  0.22371E-02  0.14836E-02  0.62339E-03  0.41876E-03  0.12541E-02  0.20014E-02
  0.25609E-02  0.28887E-02  0.29661E-02  0.27998E-02  0.24302E-02  0.19307E-02
  0.88598E-03  0.12864E-02  0.17214E-02  0.21667E-02  0.25758E-02  0.28808E-02
  0.30173E-02  0.29453E-02  0.26504E-02  0.21367E-02  0.14327E-02  0.61869E-03
  0.45690E-03  0.12751E-02  0.20385E-02  0.26336E-02  0.29924E-02  0.30546E-02
  0.27734E-02  0.21327E-02  0.11706E-02  0.38864E-03  0.16399E-02  0.31580E-02
  0.46639E-02  0.60213E-02  0.70975E-02  0.77853E-02  0.80211E-02  0.77853E-02
  0.70975E-02  0.60213E-02  0.46639E-02  0.31580E-02  0.16399E-02  0.38864E-03
  0.11706E-02  0.21327E-02  0.27734E-02  0.30546E-02  0.29924E-02  0.26336E-02
  0.20385E-02  0.12751E-02  0.45690E-03  0.61869E-03  0.14327E-02  0.21367E-02
  0.26504E-02  0.29453E-02  0.30173E-02  0.28808E-02  0.25758E-02  0.21667E-02
  0.13213E-02  0.16315E-02  0.19702E-02  0.23193E-02  0.26462E-02  0.28986E-02