       #
       # Generated by the Wannier90 code http://www.wannier.org
       # On 10May2024 at 21:04:43 
       #
CRYSTAL
PRIMVEC
   2.7281430   0.0000000   0.0000000
   0.0000000   2.7281430   0.0000000
   0.0000000   0.0000000   3.7789840
CONVVEC
   2.7281430   0.0000000   0.0000000
   0.0000000   2.7281430   0.0000000
   0.0000000   0.0000000   3.7789840
PRIMCOORD
     2  1
Fe      0.0000000   0.0000000   0.0000000
Pt      1.3640715   1.3640715   1.8894920


BEGIN_BLOCK_DATAGRID_3D
3D_field
BEGIN_DATAGRID_3D_UNKNOWN
    54    54    80
   -2.829185   -2.829185   -3.873459
   5.3552437   0.0000000   0.0000000
   0.0000000   5.3552437   0.0000000
   0.0000000   0.0000000   7.4634934
  0.32101E-01  0.29606E-01  0.21908E-01  0.12550E-01  0.47446E-02  0.18367E-02
  0.49130E-02  0.75007E-02  0.93291E-02  0.10067E-01  0.95779E-02  0.81782E-02
  0.63849E-02  0.45940E-02  0.30293E-02  0.18625E-02  0.12773E-02  0.13946E-02
  0.21227E-02  0.32745E-02  0.45800E-02  0.55694E-02  0.54693E-02  0.34968E-02
  0.41743E-02  0.12436E-01  0.22546E-01  0.30853E-01  0.34078E-01  0.30853E-01
  0.22546E-01  0.12436E-01  0.41743E-02  0.34968E-02  0.54693E-02  0.55693E-02
  0.45800E-02  0.32745E-02  0.21227E-02  0.13945E-02  0.12773E-02  0.18625E-02
  0.30293E-02  0.45940E-02  0.63849E-02  0.81782E-02  0.95779E-02  0.10067E-01
  0.93291E-02  0.75007E-02  0.49130E-02  0.18367E-02  0.47446E-02  0.12550E-01
  0.29606E-01  0.24696E-01  0.15640E-01  0.67118E-02  0.27619E-02  0.42893E-02
  0.52661E-02  0.59763E-02  0.66343E-02  0.68270E-02  0.62387E-02  0.50148E-02
  0.35597E-02  0.22038E-02  0.11210E-02  0.42884E-03  0.32905E-03  0.88999E-03
  0.19685E-02  0.34274E-02  0.49809E-02  0.61165E-02  0.59774E-02  0.36698E-02
  0.45475E-02  0.13865E-01  0.25085E-01  0.34261E-01  0.37816E-01  0.34261E-01
  0.25085E-01  0.13865E-01  0.45475E-02  0.36698E-02  0.59774E-02  0.61165E-02
  0.49809E-02  0.34274E-02  0.19685E-02  0.88999E-03  0.32904E-03  0.42884E-03
  0.11210E-02  0.22038E-02  0.35597E-02  0.50148E-02  0.62387E-02  0.68270E-02
  0.66343E-02  0.59763E-02  0.52661E-02  0.42893E-02  0.27619E-02  0.67118E-02
  0.21908E-01  0.15640E-01  0.72026E-02  0.38158E-02  0.62281E-02  0.63356E-02
  0.50627E-02  0.40251E-02  0.35950E-02  0.32626E-02  0.25862E-02  0.16012E-02
  0.77903E-03  0.94657E-03  0.14212E-02  0.15697E-02  0.12323E-02  0.59926E-03
  0.14826E-02  0.32454E-02  0.50954E-02  0.64703E-02  0.64981E-02  0.41828E-02
  0.36097E-02  0.12554E-01  0.23470E-01  0.32390E-01  0.35844E-01  0.32390E-01
  0.23469E-01  0.12554E-01  0.36097E-02  0.41828E-02  0.64981E-02  0.64703E-02
  0.50954E-02  0.32454E-02  0.14826E-02  0.59927E-03  0.12324E-02  0.15697E-02
  0.14212E-02  0.94657E-03  0.77903E-03  0.16012E-02  0.25862E-02  0.32626E-02
  0.35950E-02  0.40251E-02  0.50627E-02  0.63356E-02  0.62281E-02  0.38157E-02
  0.12550E-01  0.67118E-02  0.38157E-02  0.74159E-02  0.83779E-02  0.64647E-02
  0.36146E-02  0.14600E-02  0.66309E-03  0.10043E-02  0.16960E-02  0.25687E-02
  0.33917E-02  0.39589E-02  0.41504E-02  0.38694E-02  0.30364E-02  0.16974E-02
  0.10309E-02  0.29274E-02  0.51282E-02  0.68511E-02  0.72777E-02  0.54462E-02
  0.21288E-02  0.85542E-02  0.17847E-01  0.25495E-01  0.28460E-01  0.25495E-01
  0.17847E-01  0.85542E-02  0.21288E-02  0.54462E-02  0.72777E-02  0.68511E-02
  0.51282E-02  0.29274E-02  0.10309E-02  0.16974E-02  0.30364E-02  0.38694E-02
  0.41504E-02  0.39589E-02  0.33917E-02  0.25687E-02  0.16960E-02  0.10043E-02
  0.66309E-03  0.14600E-02  0.36146E-02  0.64647E-02  0.83779E-02  0.74159E-02
  0.47445E-02  0.27619E-02  0.62281E-02  0.83779E-02  0.74656E-02  0.44034E-02
  0.94941E-03  0.17697E-02  0.34425E-02  0.45645E-02  0.55237E-02  0.63851E-02
  0.70143E-02  0.72731E-02  0.70641E-02  0.63001E-02  0.49266E-02  0.30045E-02
  0.11559E-02  0.27028E-02  0.52873E-02  0.74368E-02  0.84223E-02  0.74554E-02
  0.40932E-02  0.31626E-02  0.97882E-02  0.15558E-01  0.17811E-01  0.15558E-01
  0.97882E-02  0.31626E-02  0.40932E-02  0.74554E-02  0.84223E-02  0.74368E-02
  0.52873E-02  0.27028E-02  0.11559E-02  0.30045E-02  0.49266E-02  0.63001E-02
  0.70641E-02  0.72731E-02  0.70143E-02  0.63850E-02  0.55237E-02  0.45645E-02
  0.34425E-02  0.17697E-02  0.94941E-03  0.44034E-02  0.74656E-02  0.83779E-02
  0.18367E-02  0.42893E-02  0.63356E-02  0.64647E-02  0.44034E-02  0.10717E-02
  0.23958E-02  0.50597E-02  0.69321E-02  0.83023E-02  0.93884E-02  0.10190E-01
  0.10600E-01  0.10515E-01  0.98547E-02  0.85513E-02  0.65928E-02  0.40869E-02
  0.15383E-02  0.26951E-02  0.56619E-02  0.82497E-02  0.98299E-02  0.98244E-02
  0.78638E-02  0.42245E-02  0.21235E-02  0.52556E-02  0.67167E-02  0.52556E-02
  0.21235E-02  0.42245E-02  0.78638E-02  0.98244E-02  0.98299E-02  0.82497E-02
  0.56619E-02  0.26951E-02  0.15383E-02  0.40869E-02  0.65929E-02  0.85513E-02
  0.98546E-02  0.10515E-01  0.10600E-01  0.10190E-01  0.93884E-02  0.83023E-02
  0.69321E-02  0.50597E-02  0.23958E-02  0.10717E-02  0.44034E-02  0.64647E-02
  0.49130E-02  0.52661E-02  0.50627E-02  0.36146E-02  0.94941E-03  0.23958E-02
  0.55576E-02  0.81759E-02  0.10220E-01  0.11811E-01  0.12995E-01  0.13707E-01
  0.13856E-01  0.13377E-01  0.12215E-01  0.10342E-01  0.78060E-02  0.47709E-02
  0.17571E-02  0.28770E-02  0.61708E-02  0.91291E-02  0.11230E-01  0.12072E-01
  0.11430E-01  0.94480E-02  0.67913E-02  0.45524E-02  0.37040E-02  0.45524E-02
  0.67913E-02  0.94480E-02  0.11430E-01  0.12072E-01  0.11230E-01  0.91291E-02
  0.61708E-02  0.28770E-02  0.17571E-02  0.47709E-02  0.78060E-02  0.10342E-01
  0.12215E-01  0.13377E-01  0.13856E-01  0.13707E-01  0.12995E-01  0.11811E-01
  0.10220E-01  0.81759E-02  0.55576E-02  0.23958E-02  0.94941E-03  0.36146E-02
  0.75007E-02  0.59763E-02  0.40251E-02  0.14600E-02  0.17697E-02  0.50597E-02
  0.81759E-02  0.10890E-01  0.13143E-01  0.14910E-01  0.16114E-01  0.16661E-01
  0.16488E-01  0.15572E-01  0.13902E-01  0.11506E-01  0.84890E-02  0.50605E-02
  0.17927E-02  0.31236E-02  0.66179E-02  0.98097E-02  0.12280E-01  0.13754E-01
  0.14109E-01  0.13455E-01  0.12209E-01  0.11027E-01  0.10544E-01  0.11027E-01
  0.12209E-01  0.13455E-01  0.14109E-01  0.13754E-01  0.12280E-01  0.98097E-02
  0.66179E-02  0.31236E-02  0.17927E-02  0.50605E-02  0.84890E-02  0.11506E-01
  0.13902E-01  0.15572E-01  0.16488E-01  0.16661E-01  0.16114E-01  0.14910E-01
  0.13143E-01  0.10890E-01  0.81759E-02  0.50597E-02  0.17697E-02  0.14600E-02
  0.93291E-02  0.66343E-02  0.35950E-02  0.66309E-03  0.34425E-02  0.69321E-02
  0.10220E-01  0.13143E-01  0.15585E-01  0.17419E-01  0.18522E-01  0.18811E-01
  0.18267E-01  0.16917E-01  0.14807E-01  0.12019E-01  0.86957E-02  0.50640E-02
  0.17473E-02  0.32961E-02  0.68178E-02  0.10061E-01  0.12699E-01  0.14545E-01
  0.15534E-01  0.15750E-01  0.15448E-01  0.15013E-01  0.14816E-01  0.15013E-01
  0.15448E-01  0.15750E-01  0.15534E-01  0.14545E-01  0.12699E-01  0.10061E-01
  0.68178E-02  0.32961E-02  0.17473E-02  0.50640E-02  0.86957E-02  0.12019E-01
  0.14807E-01  0.16917E-01  0.18267E-01  0.18811E-01  0.18522E-01  0.17419E-01
  0.15585E-01  0.13143E-01  0.10220E-01  0.69321E-02  0.34425E-02  0.66308E-03
  0.10067E-01  0.68270E-02  0.32626E-02  0.10043E-02  0.45645E-02  0.83023E-02
  0.11811E-01  0.14910E-01  0.17419E-01  0.19172E-01  0.20050E-01  0.20013E-01
  0.19096E-01  0.17379E-01  0.14960E-01  0.11959E-01  0.85309E-02  0.48924E-02
  0.16974E-02  0.33105E-02  0.66778E-02  0.97772E-02  0.12354E-01  0.14293E-01
  0.15567E-01  0.16238E-01  0.16458E-01  0.16447E-01  0.16415E-01  0.16447E-01
  0.16458E-01  0.16238E-01  0.15567E-01  0.14293E-01  0.12354E-01  0.97772E-02
  0.66778E-02  0.33105E-02  0.16974E-02  0.48924E-02  0.85309E-02  0.11959E-01
  0.14960E-01  0.17379E-01  0.19096E-01  0.20013E-01  0.20050E-01  0.19172E-01
  0.17419E-01  0.14910E-01  0.11811E-01  0.83023E-02  0.45645E-02  0.10043E-02
  0.95779E-02  0.62387E-02  0.25862E-02  0.16960E-02  0.55237E-02  0.93884E-02
  0.12995E-01  0.16114E-01  0.18522E-01  0.20050E-01  0.20620E-01  0.20247E-01
  0.19018E-01  0.17052E-01  0.14481E-01  0.11443E-01  0.80906E-02  0.46186E-02
  0.16744E-02  0.31351E-02  0.61755E-02  0.89513E-02  0.11260E-01  0.13038E-01
  0.14290E-01  0.15069E-01  0.15473E-01  0.15635E-01  0.15672E-01  0.15635E-01
  0.15473E-01  0.15069E-01  0.14290E-01  0.13038E-01  0.11260E-01  0.89513E-02
  0.61755E-02  0.31351E-02  0.16744E-02  0.46186E-02  0.80906E-02  0.11443E-01
  0.14481E-01  0.17052E-01  0.19018E-01  0.20247E-01  0.20620E-01  0.20050E-01
  0.18522E-01  0.16114E-01  0.12995E-01  0.93884E-02  0.55238E-02  0.16960E-02
  0.81782E-02  0.50148E-02  0.16012E-02  0.25687E-02  0.63851E-02  0.10190E-01
  0.13707E-01  0.16661E-01  0.18811E-01  0.20013E-01  0.20247E-01  0.19586E-01
  0.18150E-01  0.16075E-01  0.13504E-01  0.10581E-01  0.74532E-02  0.42967E-02
  0.16949E-02  0.27568E-02  0.53097E-02  0.76189E-02  0.95033E-02  0.10933E-01
  0.11934E-01  0.12563E-01  0.12905E-01  0.13057E-01  0.13097E-01  0.13057E-01
  0.12905E-01  0.12563E-01  0.11934E-01  0.10933E-01  0.95033E-02  0.76189E-02
  0.53097E-02  0.27568E-02  0.16949E-02  0.42967E-02  0.74532E-02  0.10581E-01
  0.13504E-01  0.16075E-01  0.18150E-01  0.19586E-01  0.20247E-01  0.20013E-01
  0.18811E-01  0.16661E-01  0.13707E-01  0.10190E-01  0.63851E-02  0.25687E-02
  0.63849E-02  0.35597E-02  0.77903E-03  0.33917E-02  0.70143E-02  0.10600E-01
  0.13856E-01  0.16488E-01  0.18267E-01  0.19096E-01  0.19018E-01  0.18150E-01
  0.16628E-01  0.14581E-01  0.12146E-01  0.94691E-02  0.66936E-02  0.39800E-02
  0.17804E-02  0.22071E-02  0.41118E-02  0.58401E-02  0.71887E-02  0.81414E-02
  0.87377E-02  0.90497E-02  0.91705E-02  0.91951E-02  0.91945E-02  0.91951E-02
  0.91705E-02  0.90497E-02  0.87377E-02  0.81414E-02  0.71887E-02  0.58401E-02
  0.41118E-02  0.22071E-02  0.17804E-02  0.39800E-02  0.66936E-02  0.94691E-02
  0.12146E-01  0.14581E-01  0.16628E-01  0.18150E-01  0.19018E-01  0.19096E-01
  0.18267E-01  0.16488E-01  0.13856E-01  0.10600E-01  0.70143E-02  0.33917E-02
  0.45940E-02  0.22038E-02  0.94657E-03  0.39589E-02  0.72731E-02  0.10515E-01
  0.13377E-01  0.15572E-01  0.16917E-01  0.17379E-01  0.17052E-01  0.16075E-01
  0.14581E-01  0.12683E-01  0.10509E-01  0.81989E-02  0.58868E-02  0.37113E-02
  0.19609E-02  0.16623E-02  0.27017E-02  0.37251E-02  0.44315E-02  0.48015E-02
  0.48873E-02  0.47781E-02  0.45849E-02  0.44164E-02  0.43508E-02  0.44164E-02
  0.45849E-02  0.47781E-02  0.48873E-02  0.48015E-02  0.44315E-02  0.37251E-02
  0.27017E-02  0.16623E-02  0.19609E-02  0.37113E-02  0.58868E-02  0.81989E-02
  0.10509E-01  0.12683E-01  0.14581E-01  0.16075E-01  0.17052E-01  0.17379E-01
  0.16917E-01  0.15572E-01  0.13377E-01  0.10515E-01  0.72731E-02  0.39589E-02
  0.30293E-02  0.11210E-02  0.14212E-02  0.41504E-02  0.70641E-02  0.98547E-02
  0.12215E-01  0.13902E-01  0.14807E-01  0.14960E-01  0.14481E-01  0.13504E-01
  0.12146E-01  0.10509E-01  0.87091E-02  0.68690E-02  0.51039E-02  0.35204E-02
  0.22671E-02  0.15928E-02  0.15541E-02  0.16818E-02  0.16474E-02  0.14080E-02
  0.10541E-02  0.79217E-03  0.84226E-03  0.10382E-02  0.11285E-02  0.10382E-02
  0.84226E-03  0.79217E-03  0.10541E-02  0.14081E-02  0.16474E-02  0.16818E-02
  0.15541E-02  0.15928E-02  0.22671E-02  0.35204E-02  0.51039E-02  0.68690E-02
  0.87091E-02  0.10509E-01  0.12146E-01  0.13504E-01  0.14481E-01  0.14960E-01
  0.14807E-01  0.13902E-01  0.12215E-01  0.98547E-02  0.70641E-02  0.41504E-02
  0.18625E-02  0.42884E-03  0.15697E-02  0.38694E-02  0.63001E-02  0.85513E-02
  0.10342E-01  0.11506E-01  0.12019E-01  0.11959E-01  0.11443E-01  0.10581E-01
  0.94691E-02  0.81989E-02  0.68690E-02  0.55776E-02  0.44107E-02  0.34425E-02
  0.27412E-02  0.23463E-02  0.22436E-02  0.24177E-02  0.28749E-02  0.35727E-02
  0.44087E-02  0.52577E-02  0.59900E-02  0.64866E-02  0.66625E-02  0.64866E-02
  0.59900E-02  0.52577E-02  0.44087E-02  0.35727E-02  0.28749E-02  0.24177E-02
  0.22436E-02  0.23463E-02  0.27412E-02  0.34425E-02  0.44107E-02  0.55776E-02
  0.68690E-02  0.81989E-02  0.94691E-02  0.10581E-01  0.11443E-01  0.11959E-01
  0.12019E-01  0.11506E-01  0.10342E-01  0.85513E-02  0.63001E-02  0.38694E-02
  0.12773E-02  0.32904E-03  0.12324E-02  0.30364E-02  0.49266E-02  0.65929E-02
  0.78060E-02  0.84890E-02  0.86957E-02  0.85309E-02  0.80906E-02  0.74532E-02
  0.66936E-02  0.58868E-02  0.51039E-02  0.44107E-02  0.38683E-02  0.35323E-02
  0.34529E-02  0.36793E-02  0.42484E-02  0.51474E-02  0.62935E-02  0.75622E-02
  0.88295E-02  0.99837E-02  0.10917E-01  0.11529E-01  0.11742E-01  0.11529E-01
  0.10917E-01  0.99837E-02  0.88295E-02  0.75622E-02  0.62935E-02  0.51474E-02
  0.42484E-02  0.36793E-02  0.34529E-02  0.35323E-02  0.38683E-02  0.44107E-02
  0.51039E-02  0.58868E-02  0.66936E-02  0.74532E-02  0.80906E-02  0.85309E-02
  0.86957E-02  0.84890E-02  0.78060E-02  0.65929E-02  0.49266E-02  0.30364E-02
  0.13945E-02  0.88999E-03  0.59927E-03  0.16974E-02  0.30045E-02  0.40869E-02
  0.47709E-02  0.50605E-02  0.50640E-02  0.48924E-02  0.46186E-02  0.42967E-02
  0.39800E-02  0.37113E-02  0.35204E-02  0.34425E-02  0.35323E-02  0.38544E-02
  0.44637E-02  0.53858E-02  0.66034E-02  0.80507E-02  0.96206E-02  0.11190E-01
  0.12650E-01  0.13910E-01  0.14890E-01  0.15516E-01  0.15732E-01  0.15516E-01
  0.14890E-01  0.13910E-01  0.12650E-01  0.11190E-01  0.96206E-02  0.80507E-02
  0.66034E-02  0.53858E-02  0.44637E-02  0.38544E-02  0.35323E-02  0.34425E-02
  0.35204E-02  0.37113E-02  0.39800E-02  0.42967E-02  0.46186E-02  0.48924E-02
  0.50640E-02  0.50605E-02  0.47709E-02  0.40869E-02  0.30045E-02  0.16974E-02
  0.21227E-02  0.19685E-02  0.14826E-02  0.10309E-02  0.11559E-02  0.15383E-02
  0.17571E-02  0.17927E-02  0.17473E-02  0.16974E-02  0.16744E-02  0.16949E-02
  0.17804E-02  0.19609E-02  0.22671E-02  0.27412E-02  0.34529E-02  0.44637E-02
  0.57718E-02  0.73117E-02  0.89976E-02  0.10745E-01  0.12459E-01  0.14040E-01
  0.15399E-01  0.16480E-01  0.17261E-01  0.17733E-01  0.17891E-01  0.17733E-01
  0.17261E-01  0.16480E-01  0.15399E-01  0.14040E-01  0.12459E-01  0.10745E-01
  0.89976E-02  0.73117E-02  0.57718E-02  0.44637E-02  0.34529E-02  0.27412E-02
  0.22671E-02  0.19609E-02  0.17804E-02  0.16949E-02  0.16744E-02  0.16974E-02
  0.17473E-02  0.17927E-02  0.17571E-02  0.15383E-02  0.11559E-02  0.10309E-02
  0.32745E-02  0.34274E-02  0.32454E-02  0.29274E-02  0.27028E-02  0.26951E-02
  0.28770E-02  0.31236E-02  0.32961E-02  0.33105E-02  0.31351E-02  0.27568E-02
  0.22071E-02  0.16623E-02  0.15928E-02  0.23463E-02  0.36793E-02  0.53858E-02
  0.73117E-02  0.92975E-02  0.11219E-01  0.12987E-01  0.14515E-01  0.15707E-01
  0.16509E-01  0.16950E-01  0.17133E-01  0.17180E-01  0.17185E-01  0.17180E-01
  0.17133E-01  0.16950E-01  0.16509E-01  0.15707E-01  0.14515E-01  0.12987E-01
  0.11219E-01  0.92975E-02  0.73117E-02  0.53858E-02  0.36793E-02  0.23463E-02
  0.15928E-02  0.16623E-02  0.22071E-02  0.27568E-02  0.31351E-02  0.33105E-02
  0.32961E-02  0.31236E-02  0.28770E-02  0.26951E-02  0.27028E-02  0.29274E-02
  0.45800E-02  0.49809E-02  0.50954E-02  0.51282E-02  0.52873E-02  0.56619E-02
  0.61708E-02  0.66178E-02  0.68178E-02  0.66778E-02  0.61755E-02  0.53097E-02
  0.41118E-02  0.27017E-02  0.15541E-02  0.22436E-02  0.42484E-02  0.66034E-02
  0.89976E-02  0.11219E-01  0.13118E-01  0.14575E-01  0.15456E-01  0.15669E-01
  0.15261E-01  0.14452E-01  0.13564E-01  0.12898E-01  0.12654E-01  0.12898E-01
  0.13564E-01  0.14452E-01  0.15261E-01  0.15669E-01  0.15456E-01  0.14575E-01
  0.13118E-01  0.11219E-01  0.89977E-02  0.66034E-02  0.42484E-02  0.22436E-02
  0.15541E-02  0.27017E-02  0.41118E-02  0.53097E-02  0.61755E-02  0.66778E-02
  0.68178E-02  0.66179E-02  0.61708E-02  0.56619E-02  0.52873E-02  0.51282E-02
  0.55694E-02  0.61165E-02  0.64703E-02  0.68511E-02  0.74368E-02  0.82497E-02
  0.91291E-02  0.98097E-02  0.10061E-01  0.97772E-02  0.89513E-02  0.76189E-02
  0.58401E-02  0.37251E-02  0.16818E-02  0.24177E-02  0.51474E-02  0.80507E-02
  0.10745E-01  0.12987E-01  0.14575E-01  0.15281E-01  0.14906E-01  0.13436E-01
  0.11175E-01  0.86734E-02  0.65110E-02  0.50966E-02  0.46131E-02  0.50966E-02
  0.65110E-02  0.86734E-02  0.11175E-01  0.13436E-01  0.14906E-01  0.15281E-01
  0.14575E-01  0.12987E-01  0.10745E-01  0.80507E-02  0.51474E-02  0.24177E-02
  0.16818E-02  0.37251E-02  0.58401E-02  0.76189E-02  0.89513E-02  0.97772E-02
  0.10061E-01  0.98097E-02  0.91291E-02  0.82497E-02  0.74368E-02  0.68511E-02
  0.54693E-02  0.59774E-02  0.64981E-02  0.72777E-02  0.84223E-02  0.98299E-02
  0.11230E-01  0.12280E-01  0.12699E-01  0.12354E-01  0.11260E-01  0.95033E-02
  0.71887E-02  0.44315E-02  0.16474E-02  0.28749E-02  0.62935E-02  0.96206E-02
  0.12459E-01  0.14515E-01  0.15456E-01  0.14906E-01  0.12667E-01  0.90111E-02
  0.47721E-02  0.17619E-02  0.33837E-02  0.51374E-02  0.57397E-02  0.51374E-02
  0.33837E-02  0.17619E-02  0.47721E-02  0.90111E-02  0.12667E-01  0.14906E-01
  0.15456E-01  0.14515E-01  0.12459E-01  0.96206E-02  0.62935E-02  0.28749E-02
  0.16474E-02  0.44315E-02  0.71887E-02  0.95033E-02  0.11260E-01  0.12354E-01
  0.12699E-01  0.12280E-01  0.11230E-01  0.98299E-02  0.84223E-02  0.72777E-02
  0.34968E-02  0.36698E-02  0.41828E-02  0.54462E-02  0.74554E-02  0.98244E-02
  0.12072E-01  0.13754E-01  0.14545E-01  0.14293E-01  0.13038E-01  0.10933E-01
  0.81414E-02  0.48015E-02  0.14080E-02  0.35727E-02  0.75622E-02  0.11190E-01
  0.14040E-01  0.15707E-01  0.15669E-01  0.13436E-01  0.90111E-02  0.33923E-02
  0.35987E-02  0.82509E-02  0.11442E-01  0.13114E-01  0.13613E-01  0.13114E-01
  0.11442E-01  0.82509E-02  0.35987E-02  0.33923E-02  0.90111E-02  0.13436E-01
  0.15669E-01  0.15707E-01  0.14040E-01  0.11190E-01  0.75622E-02  0.35727E-02
  0.14080E-02  0.48015E-02  0.81414E-02  0.10933E-01  0.13038E-01  0.14293E-01
  0.14545E-01  0.13754E-01  0.12072E-01  0.98244E-02  0.74554E-02  0.54462E-02
  0.41744E-02  0.45475E-02  0.36097E-02  0.21288E-02  0.40932E-02  0.78638E-02
  0.11430E-01  0.14109E-01  0.15534E-01  0.15567E-01  0.14290E-01  0.11934E-01
  0.87377E-02  0.48873E-02  0.10541E-02  0.44087E-02  0.88295E-02  0.12650E-01
  0.15399E-01  0.16509E-01  0.15261E-01  0.11175E-01  0.47721E-02  0.35987E-02
  0.99430E-02  0.14349E-01  0.16543E-01  0.17281E-01  0.17411E-01  0.17281E-01
  0.16543E-01  0.14349E-01  0.99430E-02  0.35987E-02  0.47721E-02  0.11175E-01
  0.15261E-01  0.16509E-01  0.15399E-01  0.12650E-01  0.88295E-02  0.44087E-02
  0.10541E-02  0.48873E-02  0.87377E-02  0.11934E-01  0.14290E-01  0.15567E-01
  0.15534E-01  0.14109E-01  0.11430E-01  0.78638E-02  0.40932E-02  0.21288E-02
  0.12436E-01  0.13865E-01  0.12554E-01  0.85542E-02  0.31626E-02  0.42245E-02
  0.94480E-02  0.13455E-01  0.15750E-01  0.16238E-01  0.15069E-01  0.12563E-01
  0.90497E-02  0.47781E-02  0.79217E-03  0.52577E-02  0.99837E-02  0.13910E-01
  0.16480E-01  0.16950E-01  0.14452E-01  0.86734E-02  0.17620E-02  0.82509E-02
  0.14349E-01  0.17361E-01  0.17878E-01  0.17324E-01  0.16970E-01  0.17324E-01
  0.17878E-01  0.17361E-01  0.14349E-01  0.82509E-02  0.17619E-02  0.86734E-02
  0.14452E-01  0.16950E-01  0.16480E-01  0.13910E-01  0.99837E-02  0.52577E-02
  0.79217E-03  0.47781E-02  0.90497E-02  0.12563E-01  0.15069E-01  0.16238E-01
  0.15750E-01  0.13455E-01  0.94480E-02  0.42245E-02  0.31626E-02  0.85542E-02
  0.22546E-01  0.25085E-01  0.23470E-01  0.17847E-01  0.97882E-02  0.21235E-02
  0.67913E-02  0.12209E-01  0.15448E-01  0.16458E-01  0.15473E-01  0.12905E-01
  0.91705E-02  0.45849E-02  0.84226E-03  0.59900E-02  0.10917E-01  0.14890E-01
  0.17261E-01  0.17133E-01  0.13564E-01  0.65110E-02  0.33837E-02  0.11442E-01
  0.16543E-01  0.17878E-01  0.16661E-01  0.14716E-01  0.13774E-01  0.14716E-01
  0.16661E-01  0.17878E-01  0.16543E-01  0.11442E-01  0.33837E-02  0.65110E-02
  0.13564E-01  0.17133E-01  0.17261E-01  0.14890E-01  0.10917E-01  0.59900E-02
  0.84226E-03  0.45849E-02  0.91705E-02  0.12905E-01  0.15473E-01  0.16458E-01
  0.15448E-01  0.12209E-01  0.67913E-02  0.21235E-02  0.97882E-02  0.17847E-01
  0.30853E-01  0.34261E-01  0.32390E-01  0.25495E-01  0.15558E-01  0.52556E-02
  0.45524E-02  0.11027E-01  0.15013E-01  0.16447E-01  0.15635E-01  0.13057E-01
  0.91951E-02  0.44164E-02  0.10382E-02  0.64866E-02  0.11529E-01  0.15516E-01
  0.17733E-01  0.17180E-01  0.12898E-01  0.50966E-02  0.51374E-02  0.13114E-01
  0.17281E-01  0.17324E-01  0.14716E-01  0.11242E-01  0.93792E-02  0.11242E-01
  0.14716E-01  0.17324E-01  0.17281E-01  0.13114E-01  0.51374E-02  0.50966E-02
  0.12898E-01  0.17180E-01  0.17733E-01  0.15516E-01  0.11529E-01  0.64866E-02
  0.10382E-02  0.44164E-02  0.91951E-02  0.13057E-01  0.15635E-01  0.16447E-01
  0.15013E-01  0.11027E-01  0.45524E-02  0.52556E-02  0.15558E-01  0.25495E-01
  0.34078E-01  0.37816E-01  0.35844E-01  0.28460E-01  0.17811E-01  0.67167E-02
  0.37040E-02  0.10544E-01  0.14816E-01  0.16415E-01  0.15672E-01  0.13097E-01
  0.91945E-02  0.43508E-02  0.11285E-02  0.66625E-02  0.11742E-01  0.15732E-01
  0.17891E-01  0.17185E-01  0.12654E-01  0.46131E-02  0.57397E-02  0.13613E-01
  0.17411E-01  0.16970E-01  0.13774E-01  0.93792E-02  0.66637E-02  0.93792E-02
  0.13774E-01  0.16970E-01  0.17411E-01  0.13613E-01  0.57397E-02  0.46131E-02
  0.12654E-01  0.17185E-01  0.17891E-01  0.15732E-01  0.11742E-01  0.66625E-02
  0.11285E-02  0.43508E-02  0.91945E-02  0.13097E-01  0.15672E-01  0.16415E-01
  0.14816E-01  0.10544E-01  0.37040E-02  0.67167E-02  0.17811E-01  0.28460E-01
  0.30853E-01  0.34261E-01  0.32390E-01  0.25495E-01  0.15558E-01  0.52556E-02
  0.45524E-02  0.11027E-01  0.15013E-01  0.16447E-01  0.15635E-01  0.13057E-01
  0.91951E-02  0.44164E-02  0.10382E-02  0.64866E-02  0.11529E-01  0.15516E-01
  0.17733E-01  0.17180E-01  0.12898E-01  0.50966E-02  0.51374E-02  0.13114E-01
  0.17281E-01  0.17324E-01  0.14716E-01  0.11242E-01  0.93792E-02  0.11242E-01
  0.14716E-01  0.17324E-01  0.17281E-01  0.13114E-01  0.51374E-02  0.50966E-02
  0.12898E-01  0.17180E-01  0.17733E-01  0.15516E-01  0.11529E-01  0.64866E-02
  0.10382E-02  0.44164E-02  0.91951E-02  0.13057E-01  0.15635E-01  0.16447E-01
  0.15013E-01  0.11027E-01  0.45524E-02  0.52556E-02  0.15558E-01  0.25495E-01
  0.22546E-01  0.25085E-01  0.23469E-01  0.17847E-01  0.97882E-02  0.21235E-02
  0.67913E-02  0.12209E-01  0.15448E-01  0.16458E-01  0.15473E-01  0.12905E-01
  0.91705E-02  0.45849E-02  0.84226E-03  0.59900E-02  0.10917E-01  0.14890E-01
  0.17261E-01  0.17133E-01  0.13564E-01  0.65110E-02  0.33837E-02  0.11442E-01
  0.16543E-01  0.17878E-01  0.16661E-01  0.14716E-01  0.13774E-01  0.14716E-01
  0.16661E-01  0.17878E-01  0.16543E-01  0.11442E-01  0.33837E-02  0.65110E-02
  0.13564E-01  0.17133E-01  0.17261E-01  0.14890E-01  0.10917E-01  0.59900E-02
  0.84226E-03  0.45849E-02  0.91705E-02  0.12905E-01  0.15473E-01  0.16458E-01
  0.15448E-01  0.12209E-01  0.67913E-02  0.21235E-02  0.97882E-02  0.17847E-01
  0.12436E-01  0.13865E-01  0.12554E-01  0.85542E-02  0.31626E-02  0.42245E-02
  0.94480E-02  0.13455E-01  0.15750E-01  0.16238E-01  0.15069E-01  0.12563E-01
  0.90497E-02  0.47781E-02  0.79216E-03  0.52577E-02  0.99837E-02  0.13910E-01
  0.16480E-01  0.16950E-01  0.14452E-01  0.86734E-02  0.17619E-02  0.82509E-02
  0.14349E-01  0.17361E-01  0.17878E-01  0.17324E-01  0.16970E-01  0.17324E-01
  0.17878E-01  0.17361E-01  0.14349E-01  0.82509E-02  0.17619E-02  0.86734E-02
  0.14452E-01  0.16950E-01  0.16480E-01  0.13910E-01  0.99837E-02  0.52577E-02
  0.79217E-03  0.47781E-02  0.90497E-02  0.12563E-01  0.15069E-01  0.16238E-01
  0.15750E-01  0.13455E-01  0.94480E-02  0.42245E-02  0.31626E-02  0.85542E-02
  0.41743E-02  0.45475E-02  0.36097E-02  0.21288E-02  0.40932E-02  0.78638E-02
  0.11430E-01  0.14109E-01  0.15534E-01  0.15567E-01  0.14290E-01  0.11934E-01
  0.87377E-02  0.48873E-02  0.10541E-02  0.44087E-02  0.88295E-02  0.12650E-01
  0.15399E-01  0.16509E-01  0.15261E-01  0.11175E-01  0.47721E-02  0.35987E-02
  0.99430E-02  0.14349E-01  0.16543E-01  0.17281E-01  0.17411E-01  0.17281E-01
  0.16543E-01  0.14349E-01  0.99430E-02  0.35987E-02  0.47721E-02  0.11175E-01
  0.15261E-01  0.16509E-01  0.15399E-01  0.12650E-01  0.88295E-02  0.44087E-02
  0.10541E-02  0.48873E-02  0.87377E-02  0.11934E-01  0.14290E-01  0.15567E-01
  0.15534E-01  0.14109E-01  0.11430E-01  0.78638E-02  0.40932E-02  0.21288E-02
  0.34968E-02  0.36698E-02  0.41828E-02  0.54462E-02  0.74554E-02  0.98244E-02
  0.12072E-01  0.13754E-01  0.14545E-01  0.14293E-01  0.13038E-01  0.10933E-01
  0.81414E-02  0.48015E-02  0.14080E-02  0.35727E-02  0.75622E-02  0.11190E-01
  0.14040E-01  0.15707E-01  0.15669E-01  0.13436E-01  0.90111E-02  0.33923E-02
  0.35987E-02  0.82509E-02  0.11442E-01  0.13114E-01  0.13613E-01  0.13114E-01
  0.11442E-01  0.82509E-02  0.35987E-02  0.33923E-02  0.90111E-02  0.13436E-01
  0.15669E-01  0.15707E-01  0.14040E-01  0.11190E-01  0.75622E-02  0.35727E-02
  0.14081E-02  0.48015E-02  0.81414E-02  0.10933E-01  0.13038E-01  0.14293E-01
  0.14545E-01  0.13754E-01  0.12072E-01  0.98244E-02  0.74554E-02  0.54462E-02
  0.54693E-02  0.59774E-02  0.64981E-02  0.72777E-02  0.84223E-02  0.98299E-02
  0.11230E-01  0.12280E-01  0.12699E-01  0.12354E-01  0.11260E-01  0.95033E-02
  0.71887E-02  0.44315E-02  0.16474E-02  0.28749E-02  0.62935E-02  0.96206E-02
  0.12459E-01  0.14515E-01  0.15456E-01  0.14906E-01  0.12667E-01  0.90111E-02
  0.47721E-02  0.17620E-02  0.33837E-02  0.51374E-02  0.57397E-02  0.51374E-02
  0.33837E-02  0.17619E-02  0.47721E-02  0.90111E-02  0.12667E-01  0.14906E-01
  0.15456E-01  0.14515E-01  0.12459E-01  0.96206E-02  0.62935E-02  0.28749E-02
  0.16474E-02  0.44315E-02  0.71887E-02  0.95033E-02  0.11260E-01  0.12354E-01
  0.12699E-01  0.12280E-01  0.11230E-01  0.98299E-02  0.84223E-02  0.72777E-02
  0.55693E-02  0.61165E-02  0.64703E-02  0.68511E-02  0.74368E-02  0.82497E-02
  0.91291E-02  0.98097E-02  0.10061E-01  0.97772E-02  0.89513E-02  0.76189E-02
  0.58401E-02  0.37251E-02  0.16818E-02  0.24177E-02  0.51474E-02  0.80507E-02
  0.10745E-01  0.12987E-01  0.14575E-01  0.15281E-01  0.14906E-01  0.13436E-01
  0.11175E-01  0.86734E-02  0.65110E-02  0.50966E-02  0.46131E-02  0.50966E-02
  0.65110E-02  0.86734E-02  0.11175E-01  0.13436E-01  0.14906E-01  0.15281E-01
  0.14575E-01  0.12987E-01  0.10745E-01  0.80507E-02  0.51474E-02  0.24177E-02
  0.16818E-02  0.37251E-02  0.58401E-02  0.76189E-02  0.89513E-02  0.97772E-02
  0.10061E-01  0.98097E-02  0.91291E-02  0.82497E-02  0.74368E-02  0.68511E-02
  0.45800E-02  0.49809E-02  0.50954E-02  0.51282E-02  0.52873E-02  0.56619E-02
  0.61708E-02  0.66179E-02  0.68178E-02  0.66778E-02  0.61755E-02  0.53097E-02
  0.41118E-02  0.27017E-02  0.15541E-02  0.22436E-02  0.42484E-02  0.66034E-02
  0.89976E-02  0.11219E-01  0.13118E-01  0.14575E-01  0.15456E-01  0.15669E-01
  0.15261E-01  0.14452E-01  0.13564E-01  0.12898E-01  0.12654E-01  0.12898E-01
  0.13564E-01  0.14452E-01  0.15261E-01  0.15669E-01  0.15456E-01  0.14575E-01
  0.13118E-01  0.11219E-01  0.89976E-02  0.66034E-02  0.42484E-02  0.22436E-02
  0.15541E-02  0.27017E-02  0.41118E-02  0.53097E-02  0.61755E-02  0.66778E-02
  0.68178E-02  0.66179E-02  0.61708E-02  0.56619E-02  0.52873E-02  0.51282E-02
  0.32745E-02  0.34274E-02  0.32454E-02  0.29274E-02  0.27028E-02  0.26951E-02
  0.28770E-02  0.31236E-02  0.32961E-02  0.33105E-02  0.31351E-02  0.27568E-02
  0.22071E-02  0.16623E-02  0.15928E-02  0.23463E-02  0.36793E-02  0.53858E-02
  0.73117E-02  0.92975E-02  0.11219E-01  0.12987E-01  0.14515E-01  0.15707E-01
  0.16509E-01  0.16950E-01  0.17133E-01  0.17180E-01  0.17185E-01  0.17180E-01
  0.17133E-01  0.16950E-01  0.16509E-01  0.15707E-01  0.14515E-01  0.12987E-01
  0.11219E-01  0.92975E-02  0.73117E-02  0.53858E-02  0.36793E-02  0.23463E-02
  0.15928E-02  0.16623E-02  0.22071E-02  0.27568E-02  0.31351E-02  0.33105E-02
  0.32961E-02  0.31236E-02  0.28770E-02  0.26951E-02  0.27028E-02  0.29274E-02
  0.21227E-02  0.19685E-02  0.14826E-02  0.10309E-02  0.11559E-02  0.15383E-02
  0.17571E-02  0.17927E-02  0.17473E-02  0.16974E-02  0.16744E-02  0.16949E-02
  0.17804E-02  0.19609E-02  0.22671E-02  0.27412E-02  0.34529E-02  0.44637E-02
  0.57718E-02  0.73117E-02  0.89976E-02  0.10745E-01  0.12459E-01  0.14040E-01
  0.15399E-01  0.16480E-01  0.17261E-01  0.17733E-01  0.17891E-01  0.17733E-01
  0.17261E-01  0.16480E-01  0.15399E-01  0.14040E-01  0.12459E-01  0.10745E-01
  0.89976E-02  0.73117E-02  0.57718E-02  0.44637E-02  0.34529E-02  0.27412E-02
  0.22671E-02  0.19609E-02  0.17804E-02  0.16949E-02  0.16744E-02  0.16974E-02
  0.17473E-02  0.17927E-02  0.17571E-02  0.15383E-02  0.11559E-02  0.10309E-02
  0.13945E-02  0.88999E-03  0.59926E-03  0.16974E-02  0.30045E-02  0.40869E-02
  0.47709E-02  0.50605E-02  0.50640E-02  0.48924E-02  0.46186E-02  0.42967E-02
  0.39800E-02  0.37113E-02  0.35204E-02  0.34425E-02  0.35323E-02  0.38544E-02
  0.44637E-02  0.53858E-02  0.66034E-02  0.80507E-02  0.96205E-02  0.11190E-01
  0.12650E-01  0.13910E-01  0.14890E-01  0.15516E-01  0.15732E-01  0.15516E-01
  0.14890E-01  0.13910E-01  0.12650E-01  0.11190E-01  0.96206E-02  0.80507E-02
  0.66034E-02  0.53858E-02  0.44637E-02  0.38544E-02  0.35323E-02  0.34425E-02
  0.35204E-02  0.37113E-02  0.39800E-02  0.42967E-02  0.46186E-02  0.48924E-02
  0.50640E-02  0.50605E-02  0.47709E-02  0.40869E-02  0.30045E-02  0.16974E-02
  0.12773E-02  0.32904E-03  0.12324E-02  0.30364E-02  0.49266E-02  0.65928E-02
  0.78060E-02  0.84890E-02  0.86957E-02  0.85309E-02  0.80906E-02  0.74532E-02
  0.66936E-02  0.58868E-02  0.51039E-02  0.44107E-02  0.38683E-02  0.35323E-02
  0.34529E-02  0.36793E-02  0.42484E-02  0.51474E-02  0.62935E-02  0.75622E-02
  0.88295E-02  0.99837E-02  0.10917E-01  0.11529E-01  0.11742E-01  0.11529E-01
  0.10917E-01  0.99837E-02  0.88295E-02  0.75622E-02  0.62935E-02  0.51474E-02
  0.42484E-02  0.36793E-02  0.34529E-02  0.35323E-02  0.38683E-02  0.44107E-02
  0.51039E-02  0.58868E-02  0.66936E-02  0.74532E-02  0.80906E-02  0.85309E-02
  0.86957E-02  0.84890E-02  0.78060E-02  0.65928E-02  0.49266E-02  0.30364E-02
  0.18625E-02  0.42884E-03  0.15697E-02  0.38694E-02  0.63001E-02  0.85513E-02