       #
       # Generated by the Wannier90 code http://www.wannier.org
       # On 10May2024 at 21:04:43 
       #
CRYSTAL
PRIMVEC
   2.7281430   0.0000000   0.0000000
   0.0000000   2.7281430   0.0000000
   0.0000000   0.0000000   3.7789840
CONVVEC
   2.7281430   0.0000000   0.0000000
   0.0000000   2.7281430   0.0000000
   0.0000000   0.0000000   3.7789840
PRIMCOORD
     2  1
Fe      0.0000000   0.0000000   0.0000000
Pt      1.3640715   1.3640715   1.8894920


BEGIN_BLOCK_DATAGRID_3D
3D_field
BEGIN_DATAGRID_3D_UNKNOWN
    54    54    80
   -2.829185   -2.829185   -3.873459
   5.3552437   0.0000000   0.0000000
   0.0000000   5.3552437   0.0000000
   0.0000000   0.0000000   7.4634934
  0.84684E-02  0.41037E-02  0.14480E-02  0.43512E-02  0.47883E-02  0.31759E-02
  0.10188E-02  0.58609E-03  0.12530E-02  0.13521E-02  0.12101E-02  0.96292E-03
  0.63404E-03  0.25947E-03  0.15732E-03  0.50410E-03  0.82200E-03  0.10720E-02
  0.12226E-02  0.12637E-02  0.11807E-02  0.87836E-03  0.22768E-03  0.13991E-02
  0.35818E-02  0.60071E-02  0.77715E-02  0.80566E-02  0.67121E-02  0.44145E-02
  0.22112E-02  0.83072E-03  0.34441E-03  0.34415E-03  0.56048E-03  0.92330E-03
  0.13231E-02  0.16534E-02  0.18916E-02  0.20687E-02  0.22024E-02  0.22792E-02
  0.22792E-02  0.22024E-02  0.20687E-02  0.18916E-02  0.16533E-02  0.13231E-02
  0.92329E-03  0.56047E-03  0.34414E-03  0.34440E-03  0.83071E-03  0.22112E-02
  0.70678E-02  0.19774E-02  0.33764E-02  0.64688E-02  0.64289E-02  0.41643E-02
  0.14350E-02  0.53711E-03  0.13338E-02  0.14303E-02  0.12206E-02  0.88143E-03
  0.45197E-03  0.10753E-03  0.54360E-03  0.98344E-03  0.13578E-02  0.16340E-02
  0.17821E-02  0.17900E-02  0.16339E-02  0.12204E-02  0.41389E-03  0.10558E-02
  0.27851E-02  0.43049E-02  0.48452E-02  0.39710E-02  0.20304E-02  0.86869E-03
  0.19083E-02  0.20931E-02  0.15242E-02  0.89508E-03  0.67900E-03  0.84291E-03
  0.11578E-02  0.14483E-02  0.16619E-02  0.18245E-02  0.19521E-02  0.20273E-02
  0.20273E-02  0.19521E-02  0.18245E-02  0.16619E-02  0.14483E-02  0.11578E-02
  0.84290E-03  0.67900E-03  0.89508E-03  0.15242E-02  0.20931E-02  0.19083E-02
  0.47103E-02  0.11701E-02  0.52133E-02  0.75682E-02  0.69129E-02  0.42623E-02
  0.13667E-02  0.62908E-03  0.14000E-02  0.14451E-02  0.11720E-02  0.75954E-03
  0.26620E-03  0.36817E-03  0.91179E-03  0.14074E-02  0.18175E-02  0.21117E-02
  0.22623E-02  0.22537E-02  0.20574E-02  0.16008E-02  0.80931E-03  0.33923E-03
  0.13733E-02  0.18856E-02  0.15913E-02  0.19270E-02  0.37974E-02  0.53320E-02
  0.55250E-02  0.43802E-02  0.26579E-02  0.12574E-02  0.65733E-03  0.66439E-03
  0.87934E-03  0.11101E-02  0.12908E-02  0.14367E-02  0.15558E-02  0.16267E-02
  0.16267E-02  0.15558E-02  0.14367E-02  0.12908E-02  0.11101E-02  0.87933E-03
  0.66438E-03  0.65732E-03  0.12574E-02  0.26579E-02  0.43802E-02  0.55250E-02
  0.25714E-02  0.24910E-02  0.56823E-02  0.70434E-02  0.59410E-02  0.33555E-02
  0.78748E-03  0.88046E-03  0.14642E-02  0.14156E-02  0.10888E-02  0.62816E-03
  0.17810E-03  0.62173E-03  0.12095E-02  0.17349E-02  0.21651E-02  0.24721E-02
  0.26305E-02  0.26229E-02  0.24207E-02  0.19756E-02  0.12799E-02  0.48377E-03
  0.33248E-03  0.10538E-02  0.25933E-02  0.48762E-02  0.70094E-02  0.79576E-02
  0.72301E-02  0.52125E-02  0.28835E-02  0.11667E-02  0.49982E-03  0.49771E-03
  0.60123E-03  0.73983E-03  0.86915E-03  0.98848E-03  0.10912E-02  0.11523E-02
  0.11523E-02  0.10912E-02  0.98847E-03  0.86914E-03  0.73982E-03  0.60123E-03
  0.49770E-03  0.49982E-03  0.11667E-02  0.28835E-02  0.52125E-02  0.72301E-02
  0.13920E-02  0.26843E-02  0.46511E-02  0.51467E-02  0.39356E-02  0.18348E-02
  0.17069E-03  0.11960E-02  0.15100E-02  0.13615E-02  0.99846E-03  0.51784E-03
  0.25537E-03  0.81055E-03  0.14118E-02  0.19470E-02  0.23859E-02  0.27007E-02
  0.28671E-02  0.28702E-02  0.26868E-02  0.22857E-02  0.16919E-02  0.10878E-02
  0.92483E-03  0.17470E-02  0.34708E-02  0.56031E-02  0.72733E-02  0.76552E-02
  0.65122E-02  0.43711E-02  0.21687E-02  0.70103E-03  0.45037E-03  0.52969E-03
  0.51083E-03  0.50710E-03  0.54014E-03  0.60468E-03  0.67541E-03  0.71926E-03
  0.71926E-03  0.67541E-03  0.60468E-03  0.54013E-03  0.50709E-03  0.51082E-03
  0.52969E-03  0.45037E-03  0.70103E-03  0.21687E-02  0.43711E-02  0.65122E-02
  0.81392E-03  0.18722E-02  0.27973E-02  0.27558E-02  0.17381E-02  0.33481E-03
  0.85962E-03  0.14389E-02  0.15137E-02  0.12939E-02  0.91480E-03  0.44082E-03
  0.35550E-03  0.92529E-03  0.15158E-02  0.20443E-02  0.24811E-02  0.27950E-02
  0.29629E-02  0.29759E-02  0.28217E-02  0.24797E-02  0.19747E-02  0.14556E-02
  0.12315E-02  0.17005E-02  0.28833E-02  0.43218E-02  0.53295E-02  0.53392E-02
  0.42722E-02  0.26006E-02  0.10435E-02  0.40136E-03  0.64933E-03  0.69070E-03
  0.61467E-03  0.51900E-03  0.44011E-03  0.41035E-03  0.42523E-03  0.44378E-03
  0.44378E-03  0.42523E-03  0.41035E-03  0.44011E-03  0.51900E-03  0.61466E-03
  0.69070E-03  0.64933E-03  0.40136E-03  0.10435E-02  0.26006E-02  0.42722E-02
  0.28424E-03  0.76054E-03  0.10162E-02  0.76208E-03  0.11792E-03  0.74852E-03
  0.13165E-02  0.15333E-02  0.14630E-02  0.12114E-02  0.83286E-03  0.38889E-03
  0.42837E-03  0.97512E-03  0.15342E-02  0.20394E-02  0.24597E-02  0.27607E-02
  0.29196E-02  0.29349E-02  0.28077E-02  0.25280E-02  0.21081E-02  0.16401E-02
  0.13071E-02  0.13290E-02  0.17894E-02  0.24367E-02  0.28410E-02  0.26766E-02
  0.19370E-02  0.95231E-03  0.37535E-03  0.66309E-03  0.81207E-03  0.78448E-03
  0.68476E-03  0.55618E-03  0.42740E-03  0.35005E-03  0.33963E-03  0.34910E-03
  0.34910E-03  0.33963E-03  0.35005E-03  0.42739E-03  0.55617E-03  0.68476E-03
  0.78448E-03  0.81207E-03  0.66309E-03  0.37535E-03  0.95231E-03  0.19370E-02
  0.18813E-03  0.10139E-03  0.15385E-03  0.42755E-03  0.83819E-03  0.12237E-02
  0.14509E-02  0.14847E-02  0.13572E-02  0.11021E-02  0.73770E-03  0.34869E-03
  0.47460E-03  0.97509E-03  0.14847E-02  0.19490E-02  0.23362E-02  0.26110E-02
  0.27520E-02  0.27621E-02  0.26530E-02  0.24279E-02  0.20930E-02  0.16935E-02
  0.13252E-02  0.10926E-02  0.10423E-02  0.11037E-02  0.11017E-02  0.89677E-03
  0.53409E-03  0.40161E-03  0.64057E-03  0.79767E-03  0.80780E-03  0.72731E-03
  0.60014E-03  0.45506E-03  0.35735E-03  0.37756E-03  0.45087E-03  0.49724E-03
  0.49724E-03  0.45086E-03  0.37755E-03  0.35735E-03  0.45506E-03  0.60014E-03
  0.72731E-03  0.80780E-03  0.79766E-03  0.64056E-03  0.40161E-03  0.53409E-03
  0.42340E-03  0.50198E-03  0.65429E-03  0.87137E-03  0.11019E-02  0.12796E-02
  0.13601E-02  0.13308E-02  0.11938E-02  0.95045E-03  0.61718E-03  0.31623E-03
  0.50336E-03  0.94197E-03  0.13880E-02  0.17956E-02  0.21338E-02  0.23713E-02
  0.24900E-02  0.24926E-02  0.23947E-02  0.22096E-02  0.19483E-02  0.16324E-02
  0.13046E-02  0.10168E-02  0.79926E-03  0.64192E-03  0.51746E-03  0.44127E-03
  0.48139E-03  0.60414E-03  0.69866E-03  0.71079E-03  0.64442E-03  0.53040E-03
  0.42694E-03  0.44394E-03  0.60722E-03  0.80798E-03  0.96571E-03  0.10482E-02
  0.10482E-02  0.96571E-03  0.80799E-03  0.60722E-03  0.44394E-03  0.42694E-03
  0.53040E-03  0.64442E-03  0.71079E-03  0.69866E-03  0.60414E-03  0.48139E-03
  0.48912E-03  0.58987E-03  0.72771E-03  0.87958E-03  0.10149E-02  0.11070E-02
  0.11382E-02  0.10955E-02  0.96657E-03  0.74872E-03  0.47260E-03  0.30565E-03
  0.53103E-03  0.89907E-03  0.12724E-02  0.16122E-02  0.18901E-02  0.20831E-02
  0.21787E-02  0.21778E-02  0.20913E-02  0.19354E-02  0.17270E-02  0.14825E-02
  0.12206E-02  0.96483E-03  0.74180E-03  0.57722E-03  0.49209E-03  0.48743E-03
  0.52812E-03  0.56547E-03  0.56542E-03  0.51956E-03  0.46294E-03  0.50020E-03
  0.70340E-03  0.10087E-02  0.13345E-02  0.16245E-02  0.18397E-02  0.19543E-02
  0.19543E-02  0.18397E-02  0.16245E-02  0.13346E-02  0.10087E-02  0.70341E-03
  0.50020E-03  0.46295E-03  0.51957E-03  0.56542E-03  0.56547E-03  0.52812E-03
  0.44846E-03  0.50359E-03  0.58855E-03  0.68276E-03  0.76482E-03  0.81920E-03
  0.83336E-03  0.79277E-03  0.68473E-03  0.51488E-03  0.34258E-03  0.35256E-03
  0.58265E-03  0.87734E-03  0.11743E-02  0.14418E-02  0.16558E-02  0.18021E-02
  0.18758E-02  0.18768E-02  0.18087E-02  0.16809E-02  0.15092E-02  0.13102E-02
  0.10975E-02  0.88509E-03  0.69314E-03  0.54968E-03  0.47657E-03  0.46276E-03
  0.46980E-03  0.47023E-03  0.47032E-03  0.52535E-03  0.71217E-03  0.10414E-02
  0.14624E-02  0.19127E-02  0.23403E-02  0.27071E-02  0.29806E-02  0.31288E-02
  0.31288E-02  0.29806E-02  0.27071E-02  0.23403E-02  0.19127E-02  0.14624E-02
  0.10414E-02  0.71218E-03  0.52536E-03  0.47033E-03  0.47024E-03  0.46980E-03
  0.33591E-03  0.32405E-03  0.35572E-03  0.40974E-03  0.46290E-03  0.49999E-03
  0.51058E-03  0.48541E-03  0.42268E-03  0.35150E-03  0.35563E-03  0.48357E-03
  0.68181E-03  0.90483E-03  0.11276E-02  0.13269E-02  0.14829E-02  0.15875E-02
  0.16418E-02  0.16473E-02  0.16016E-02  0.15042E-02  0.13625E-02  0.11902E-02
  0.10023E-02  0.81472E-03  0.64807E-03  0.52667E-03  0.46536E-03  0.45383E-03
  0.47416E-03  0.53652E-03  0.68252E-03  0.94980E-03  0.13456E-02  0.18475E-02
  0.24104E-02  0.29792E-02  0.35058E-02  0.39533E-02  0.42862E-02  0.44666E-02
  0.44666E-02  0.42862E-02  0.39533E-02  0.35058E-02  0.29792E-02  0.24104E-02
  0.18475E-02  0.13456E-02  0.94981E-03  0.68253E-03  0.53653E-03  0.47417E-03
  0.18098E-03  0.16584E-03  0.24508E-03  0.32860E-03  0.38984E-03  0.42449E-03
  0.43622E-03  0.43482E-03  0.43849E-03  0.47445E-03  0.56080E-03  0.68819E-03
  0.83667E-03  0.99430E-03  0.11524E-02  0.12966E-02  0.14100E-02  0.14850E-02
  0.15243E-02  0.15311E-02  0.15011E-02  0.14268E-02  0.13073E-02  0.11515E-02
  0.97488E-03  0.79690E-03  0.64160E-03  0.53474E-03  0.49303E-03  0.51783E-03
  0.61369E-03  0.80254E-03  0.11068E-02  0.15346E-02  0.20793E-02  0.27177E-02
  0.34067E-02  0.40919E-02  0.47208E-02  0.52499E-02  0.56385E-02  0.58467E-02
  0.58467E-02  0.56385E-02  0.52499E-02  0.47208E-02  0.40919E-02  0.34067E-02
  0.27177E-02  0.20794E-02  0.15346E-02  0.11068E-02  0.80255E-03  0.61370E-03
  0.16587E-03  0.34890E-03  0.51879E-03  0.64142E-03  0.71372E-03  0.74365E-03
  0.74603E-03  0.73971E-03  0.74550E-03  0.78055E-03  0.84885E-03  0.93934E-03
  0.10387E-02  0.11433E-02  0.12535E-02  0.13613E-02  0.14506E-02  0.15099E-02
  0.15391E-02  0.15410E-02  0.15114E-02  0.14410E-02  0.13261E-02  0.11733E-02
  0.99774E-03  0.81992E-03  0.66667E-03  0.56940E-03  0.55423E-03  0.63279E-03
  0.81351E-03  0.11110E-02  0.15364E-02  0.20901E-02  0.27616E-02  0.35257E-02
  0.43383E-02  0.51398E-02  0.58694E-02  0.64754E-02  0.69133E-02  0.71448E-02
  0.71448E-02  0.69133E-02  0.64754E-02  0.58695E-02  0.51398E-02  0.43383E-02
  0.35257E-02  0.27616E-02  0.20901E-02  0.15364E-02  0.11110E-02  0.81352E-03
  0.35289E-03  0.63296E-03  0.86021E-03  0.10167E-02  0.11035E-02  0.11355E-02
  0.11339E-02  0.11189E-02  0.11088E-02  0.11189E-02  0.11547E-02  0.12090E-02
  0.12718E-02  0.13427E-02  0.14263E-02  0.15171E-02  0.15971E-02  0.16498E-02
  0.16712E-02  0.16624E-02  0.16189E-02  0.15316E-02  0.13977E-02  0.12261E-02
  0.10330E-02  0.83976E-03  0.67621E-03  0.58159E-03  0.59104E-03  0.71642E-03
  0.96068E-03  0.13357E-02  0.18521E-02  0.25095E-02  0.32941E-02  0.41763E-02
  0.51056E-02  0.60150E-02  0.68356E-02  0.75100E-02  0.79924E-02  0.82454E-02
  0.82454E-02  0.79924E-02  0.75100E-02  0.68356E-02  0.60150E-02  0.51056E-02
  0.41763E-02  0.32941E-02  0.25095E-02  0.18521E-02  0.13357E-02  0.96069E-03
  0.54090E-03  0.88543E-03  0.11583E-02  0.13444E-02  0.14473E-02  0.14867E-02
  0.14874E-02  0.14683E-02  0.14442E-02  0.14308E-02  0.14396E-02  0.14705E-02
  0.15173E-02  0.15795E-02  0.16601E-02  0.17511E-02  0.18309E-02  0.18801E-02
  0.18926E-02  0.18684E-02  0.18010E-02  0.16802E-02  0.15053E-02  0.12893E-02
  0.10529E-02  0.82159E-03  0.63088E-03  0.53034E-03  0.55964E-03  0.71683E-03
  0.99725E-03  0.14187E-02  0.19988E-02  0.27376E-02  0.36164E-02  0.45981E-02
  0.56247E-02  0.66227E-02  0.75188E-02  0.82526E-02  0.87767E-02  0.90514E-02
  0.90514E-02  0.87767E-02  0.82526E-02  0.75188E-02  0.66227E-02  0.56247E-02
  0.45981E-02  0.36164E-02  0.27376E-02  0.19988E-02  0.14187E-02  0.99726E-03
  0.68525E-03  0.10745E-02  0.13804E-02  0.15891E-02  0.17058E-02  0.17525E-02
  0.17557E-02  0.17336E-02  0.17000E-02  0.16726E-02  0.16695E-02  0.16974E-02
  0.17527E-02  0.18321E-02  0.19323E-02  0.20387E-02  0.21253E-02  0.21714E-02
  0.21720E-02  0.21264E-02  0.20250E-02  0.18551E-02  0.16182E-02  0.13342E-02
  0.10322E-02  0.74657E-03  0.52550E-03  0.43543E-03  0.49719E-03  0.66456E-03
  0.93698E-03  0.13577E-02  0.19603E-02  0.27454E-02  0.36860E-02  0.47363E-02
  0.58322E-02  0.68961E-02  0.78515E-02  0.86357E-02  0.91977E-02  0.94933E-02
  0.94933E-02  0.91977E-02  0.86357E-02  0.78515E-02  0.68961E-02  0.58322E-02
  0.47363E-02  0.36860E-02  0.27454E-02  0.19604E-02  0.13577E-02  0.93699E-03
  0.76834E-03  0.11842E-02  0.15089E-02  0.17292E-02  0.18504E-02  0.18961E-02
  0.18952E-02  0.18686E-02  0.18323E-02  0.18067E-02  0.18134E-02  0.18619E-02
  0.19487E-02  0.20663E-02  0.22039E-02  0.23390E-02  0.24404E-02  0.24864E-02
  0.24723E-02  0.23963E-02  0.22456E-02  0.20077E-02  0.16902E-02  0.13236E-02
  0.94917E-03  0.61815E-03  0.41930E-03  0.43623E-03  0.56138E-03  0.70193E-03
  0.88797E-03  0.12152E-02  0.17604E-02  0.25293E-02  0.34821E-02  0.45616E-02
  0.56971E-02  0.68059E-02  0.78062E-02  0.86302E-02  0.92224E-02  0.95345E-02
  0.95345E-02  0.92224E-02  0.86302E-02  0.78062E-02  0.68059E-02  0.56971E-02
  0.45616E-02  0.34821E-02  0.25293E-02  0.17604E-02  0.12152E-02  0.88798E-03
  0.77839E-03  0.12037E-02  0.15335E-02  0.17530E-02  0.18666E-02  0.18994E-02
  0.18849E-02  0.18503E-02  0.18170E-02  0.18080E-02  0.18445E-02  0.19337E-02
  0.20690E-02  0.22382E-02  0.24245E-02  0.25986E-02  0.27240E-02  0.27756E-02
  0.27456E-02  0.26292E-02  0.24137E-02  0.20930E-02  0.16872E-02  0.12402E-02
  0.80834E-03  0.48582E-03  0.45812E-03  0.64601E-03  0.82665E-03  0.94257E-03
  0.10147E-02  0.11461E-02  0.14999E-02  0.21459E-02  0.30360E-02  0.40932E-02
  0.52342E-02  0.63656E-02  0.73944E-02  0.82441E-02  0.88547E-02  0.91763E-02
  0.91763E-02  0.88547E-02  0.82441E-02  0.73944E-02  0.63656E-02  0.52342E-02
  0.40932E-02  0.30360E-02  0.21459E-02  0.14999E-02  0.11461E-02  0.10147E-02
  0.70500E-03  0.11204E-02  0.14426E-02  0.16529E-02  0.17526E-02  0.17666E-02
  0.17325E-02  0.16850E-02  0.16533E-02  0.16650E-02  0.17404E-02  0.18816E-02
  0.20752E-02  0.23032E-02  0.25439E-02  0.27636E-02  0.29205E-02  0.29832E-02
  0.29375E-02  0.27758E-02  0.24909E-02  0.20895E-02  0.16060E-02  0.10966E-02
  0.64106E-03  0.45056E-03  0.66799E-03  0.95752E-03  0.11754E-02  0.12937E-02
  0.13139E-02  0.12833E-02  0.13547E-02  0.17303E-02  0.24467E-02  0.34094E-02
  0.45082E-02  0.56295E-02  0.66638E-02  0.75223E-02  0.81393E-02  0.84638E-02
  0.84638E-02  0.81393E-02  0.75223E-02  0.66638E-02  0.56295E-02  0.45082E-02
  0.34094E-02  0.24467E-02  0.17303E-02  0.13547E-02  0.12833E-02  0.13139E-02
  0.53746E-03  0.91741E-03  0.12192E-02  0.14171E-02  0.15054E-02  0.15047E-02
  0.14526E-02  0.13887E-02  0.13508E-02  0.13751E-02  0.14850E-02  0.16789E-02
  0.19347E-02  0.22256E-02  0.25242E-02  0.27930E-02  0.29854E-02  0.30617E-02
  0.30013E-02  0.27982E-02  0.24556E-02  0.19932E-02  0.14542E-02  0.90436E-03
  0.49122E-03  0.58215E-03  0.94322E-03  0.12590E-02  0.14763E-02  0.15956E-02
  0.16157E-02  0.15377E-02  0.14219E-02  0.14558E-02  0.18578E-02  0.26263E-02
  0.36187E-02  0.46866E-02  0.56978E-02  0.65482E-02  0.71626E-02  0.74863E-02
  0.74863E-02  0.71626E-02  0.65482E-02  0.56978E-02  0.46866E-02  0.36187E-02
  0.26263E-02  0.18578E-02  0.14558E-02  0.14219E-02  0.15377E-02  0.16157E-02
  0.29192E-03  0.60582E-03  0.88015E-03  0.10652E-02  0.11425E-02  0.11276E-02
  0.10577E-02  0.97491E-03  0.92289E-03  0.94667E-03  0.10776E-02  0.13158E-02
  0.16324E-02  0.19886E-02  0.23476E-02  0.26672E-02  0.28952E-02  0.29848E-02
  0.29122E-02  0.26781E-02  0.22977E-02  0.17970E-02  0.12199E-02  0.66009E-03
  0.46741E-03  0.80679E-03  0.11433E-02  0.13573E-02  0.14887E-02  0.15947E-02
  0.16760E-02  0.16797E-02  0.15693E-02  0.14071E-02  0.14247E-02  0.18696E-02
  0.26779E-02  0.36470E-02  0.46082E-02  0.54368E-02  0.60434E-02  0.63647E-02
  0.63647E-02  0.60434E-02  0.54368E-02  0.46082E-02  0.36470E-02  0.26779E-02
  0.18696E-02  0.14247E-02  0.14071E-02  0.15693E-02  0.16797E-02  0.16760E-02
  0.25594E-03  0.34776E-03  0.58083E-03  0.74094E-03  0.77621E-03  0.71061E-03
  0.59727E-03  0.48482E-03  0.41470E-03  0.42469E-03  0.55092E-03  0.81264E-03
  0.11804E-02  0.15994E-02  0.20184E-02  0.23869E-02  0.26475E-02  0.27486E-02
  0.26679E-02  0.24148E-02  0.20125E-02  0.14860E-02  0.88556E-03  0.42779E-03
  0.62710E-03  0.91774E-03  0.96859E-03  0.83861E-03  0.73763E-03  0.84678E-03
  0.11292E-02  0.14156E-02  0.15449E-02  0.14563E-02  0.12552E-02  0.12774E-02
  0.17964E-02  0.26252E-02  0.35186E-02  0.43171E-02  0.49121E-02  0.52296E-02
  0.52296E-02  0.49121E-02  0.43171E-02  0.35186E-02  0.26252E-02  0.17964E-02
  0.12774E-02  0.12552E-02  0.14563E-02  0.15449E-02  0.14156E-02  0.11292E-02
  0.63387E-03  0.59897E-03  0.76016E-03  0.83416E-03  0.69790E-03  0.43277E-03
  0.21856E-03  0.25064E-03  0.34568E-03  0.35181E-03  0.24395E-03  0.25501E-03
  0.62215E-03  0.10913E-02  0.15619E-02  0.19708E-02  0.22563E-02  0.23663E-02
  0.22821E-02  0.20198E-02  0.16045E-02  0.10601E-02  0.48659E-03  0.45727E-03
  0.74612E-03  0.65770E-03  0.36149E-03  0.86875E-03  0.13458E-02  0.12862E-02
  0.76102E-03  0.61359E-03  0.11238E-02  0.13778E-02  0.12654E-02  0.99832E-03
  0.10898E-02  0.17264E-02  0.25448E-02  0.33102E-02  0.38899E-02  0.42008E-02
  0.42008E-02  0.38899E-02  0.33102E-02  0.25448E-02  0.17264E-02  0.10898E-02
  0.99832E-03  0.12654E-02  0.13778E-02  0.11238E-02  0.61360E-03  0.76102E-03
  0.10688E-02  0.12148E-02  0.16206E-02  0.17101E-02  0.13047E-02  0.60144E-03
  0.12466E-03  0.61274E-03  0.88471E-03  0.94888E-03  0.81847E-03  0.51235E-03
  0.17953E-03  0.53074E-03  0.10273E-02  0.14583E-02  0.17553E-02  0.18690E-02
  0.17846E-02  0.15202E-02  0.11001E-02  0.56337E-03  0.30454E-03  0.66562E-03
  0.64144E-03  0.58630E-03  0.19928E-02  0.36513E-02  0.46722E-02  0.45321E-02
  0.33097E-02  0.16124E-02  0.49373E-03  0.10502E-02  0.12549E-02  0.10022E-02
  0.69020E-03  0.10342E-02  0.17798E-02  0.25144E-02  0.30760E-02  0.33771E-02
  0.33771E-02  0.30760E-02  0.25144E-02  0.17798E-02  0.10342E-02  0.69020E-03
  0.10022E-02  0.12549E-02  0.10502E-02  0.49373E-03  0.16124E-02  0.33097E-02
  0.13743E-02  0.20406E-02  0.30476E-02  0.33203E-02  0.26293E-02  0.13574E-02
  0.12245E-03  0.87214E-03  0.13754E-02  0.15374E-02  0.14393E-02  0.11330E-02
  0.68812E-03  0.29412E-03  0.52165E-03  0.92360E-03  0.12092E-02  0.13166E-02
  0.12313E-02  0.97157E-03  0.57010E-03  0.23708E-03  0.61764E-03  0.82612E-03
  0.43923E-03  0.15935E-02  0.41063E-02  0.66742E-02  0.81954E-02  0.79797E-02
  0.61553E-02  0.35504E-02  0.11784E-02  0.58426E-03  0.11424E-02  0.10475E-02
  0.60235E-03  0.59617E-03  0.12862E-02  0.19970E-02  0.25397E-02  0.28292E-02
  0.28292E-02  0.25397E-02  0.19970E-02  0.12862E-02  0.59617E-03  0.60235E-03
  0.10475E-02  0.11424E-02  0.58426E-03  0.11784E-02  0.35504E-02  0.61553E-02
  0.13304E-02  0.28753E-02  0.46963E-02  0.52688E-02  0.43285E-02  0.24567E-02
  0.53358E-03  0.94528E-03  0.17322E-02  0.20229E-02  0.19743E-02  0.16866E-02
  0.12433E-02  0.76006E-03  0.44323E-03  0.53686E-03  0.73820E-03  0.81617E-03
  0.72867E-03  0.50466E-03  0.31577E-03  0.59121E-03  0.97511E-03  0.97958E-03
  0.47364E-03  0.22515E-02  0.52819E-02  0.82959E-02  0.10068E-01  0.98313E-02
  0.77290E-02  0.46917E-02  0.18553E-02  0.32986E-03  0.99070E-03  0.99769E-03
  0.55496E-03  0.40954E-03  0.10953E-02  0.17882E-02  0.23121E-02  0.25900E-02
  0.25900E-02  0.23121E-02  0.17882E-02  0.10953E-02  0.40954E-03  0.55496E-03
  0.99769E-03  0.99070E-03  0.32986E-03  0.18553E-02  0.46917E-02  0.77290E-02
  0.90848E-03  0.34376E-02  0.59747E-02  0.68457E-02  0.57591E-02  0.34391E-02
  0.98621E-03  0.90993E-03  0.19455E-02  0.23576E-02  0.23613E-02  0.21006E-02
  0.16760E-02  0.11985E-02  0.79490E-03  0.58481E-03  0.56296E-03  0.56307E-03
  0.50310E-03  0.47152E-03  0.64301E-03  0.97856E-03  0.12768E-02  0.12422E-02
  0.78738E-03  0.19837E-02  0.46166E-02  0.72916E-02  0.88911E-02  0.87146E-02
  0.68672E-02  0.41681E-02  0.16462E-02  0.36717E-03  0.88416E-03  0.82937E-03
  0.38034E-03  0.48371E-03  0.12014E-02  0.18763E-02  0.23813E-02  0.26477E-02
  0.26477E-02  0.23813E-02  0.18763E-02  0.12014E-02  0.48371E-03  0.38034E-03
  0.82937E-03  0.88416E-03  0.36718E-03  0.16462E-02  0.41681E-02  0.68672E-02
  0.85355E-03  0.35528E-02  0.63564E-02  0.73794E-02  0.62840E-02  0.38249E-02
  0.11760E-02  0.88533E-03  0.20378E-02  0.25150E-02  0.25548E-02  0.23217E-02
  0.19255E-02  0.14756E-02  0.10817E-02  0.81944E-03  0.69357E-03  0.64312E-03
  0.64174E-03  0.74246E-03  0.96224E-03  0.12407E-02  0.14899E-02  0.15913E-02
  0.14952E-02  0.16619E-02  0.27305E-02  0.41323E-02  0.50181E-02  0.48725E-02
  0.37177E-02  0.20655E-02  0.65680E-03  0.62384E-03  0.81105E-03  0.54769E-03
  0.24816E-03  0.83658E-03  0.15619E-02  0.22161E-02  0.27002E-02  0.29541E-02
  0.29541E-02  0.27002E-02  0.22161E-02  0.15619E-02  0.83659E-03  0.24816E-03
  0.54768E-03  0.81105E-03  0.62384E-03  0.65679E-03  0.20655E-02  0.37177E-02
  0.14995E-02  0.32176E-02  0.56757E-02  0.66243E-02  0.56484E-02  0.34058E-02
  0.96602E-03  0.94151E-03  0.20292E-02  0.24869E-02  0.25330E-02  0.23209E-02
  0.19564E-02  0.15453E-02  0.11886E-02  0.94593E-03  0.81615E-03  0.76664E-03
  0.79710E-03  0.93216E-03  0.11383E-02  0.13538E-02  0.15698E-02  0.18448E-02
  0.22477E-02  0.27170E-02  0.30278E-02  0.29653E-02  0.24908E-02  0.17732E-02
  0.11518E-02  0.99818E-03  0.10949E-02  0.10140E-02  0.67451E-03  0.27025E-03
  0.68198E-03  0.13916E-02  0.21092E-02  0.27390E-02  0.31985E-02  0.34373E-02
  0.34373E-02  0.31985E-02  0.27390E-02  0.21092E-02  0.13916E-02  0.68199E-03
  0.27024E-03  0.67451E-03  0.10140E-02  0.10949E-02  0.99820E-03  0.11518E-02
  0.18904E-02  0.25491E-02  0.42080E-02  0.48976E-02  0.41307E-02  0.23770E-02
  0.47108E-03  0.10466E-02  0.19139E-02  0.22778E-02  0.23002E-02  0.20988E-02
  0.17652E-02  0.14004E-02  0.10994E-02  0.90854E-03  0.81152E-03  0.77773E-03
  0.82197E-03  0.96909E-03  0.11650E-02  0.13345E-02  0.15028E-02  0.18410E-02
  0.25520E-02  0.35868E-02  0.45981E-02  0.51819E-02  0.51373E-02  0.45621E-02
  0.37228E-02  0.28344E-02  0.19707E-02  0.11439E-02  0.43704E-03  0.61503E-03
  0.13195E-02  0.20529E-02  0.27551E-02  0.33565E-02  0.37878E-02  0.40091E-02
  0.40091E-02  0.37878E-02  0.33565E-02  0.27551E-02  0.20530E-02  0.13195E-02
  0.61504E-03  0.43703E-03  0.11439E-02  0.19707E-02  0.28344E-02  0.37228E-02
  0.17528E-02  0.17388E-02  0.25097E-02  0.28832E-02  0.23629E-02  0.12071E-02
  0.20201E-03  0.10910E-02  0.16701E-02  0.19036E-02  0.18832E-02  0.16841E-02
  0.13832E-02  0.10794E-02  0.86452E-03  0.76094E-03  0.71605E-03  0.69045E-03
  0.72126E-03  0.86517E-03  0.10676E-02  0.12253E-02  0.13410E-02  0.15967E-02
  0.22716E-02  0.34248E-02  0.47592E-02  0.57988E-02  0.61527E-02  0.57125E-02
  0.46628E-02  0.33265E-02  0.19927E-02  0.86048E-03  0.52643E-03  0.12370E-02
  0.19934E-02  0.27237E-02  0.34013E-02  0.39688E-02  0.43689E-02  0.45721E-02
  0.45721E-02  0.43689E-02  0.39688E-02  0.34013E-02  0.27237E-02  0.19934E-02
  0.12370E-02  0.52643E-03  0.86048E-03  0.19927E-02  0.33265E-02  0.46628E-02
  0.12233E-02  0.99256E-03  0.11173E-02  0.12434E-02  0.96220E-03  0.38931E-03
  0.47361E-03  0.98444E-03  0.12977E-02  0.14020E-02  0.13330E-02  0.11368E-02
  0.88996E-03  0.70609E-03  0.66100E-03  0.68866E-03  0.68916E-03  0.63522E-03
  0.58848E-03  0.67529E-03  0.88267E-03  0.10663E-02  0.11661E-02  0.12901E-02
  0.16901E-02  0.25254E-02  0.36285E-02  0.45984E-02  0.50302E-02  0.47342E-02
  0.38143E-02  0.25671E-02  0.13166E-02  0.52415E-03  0.10776E-02  0.18648E-02
  0.26116E-02  0.33173E-02  0.39573E-02  0.44824E-02  0.48480E-02  0.50327E-02
  0.50327E-02  0.48481E-02  0.44824E-02  0.39573E-02  0.33173E-02  0.26116E-02
  0.18648E-02  0.10776E-02  0.52415E-03  0.13166E-02  0.25671E-02  0.38143E-02
  0.58739E-03  0.42209E-03  0.27411E-03  0.31226E-03  0.29882E-03  0.33147E-03
  0.53500E-03  0.74175E-03  0.85545E-03  0.85331E-03  0.74850E-03  0.59958E-03
  0.53672E-03  0.64138E-03  0.79876E-03  0.89441E-03  0.88612E-03  0.77592E-03
  0.60909E-03  0.52616E-03  0.66530E-03  0.87982E-03  0.10177E-02  0.10828E-02
  0.12156E-02  0.15904E-02  0.21960E-02  0.27921E-02  0.30801E-02  0.28841E-02
  0.22392E-02  0.13494E-02  0.58472E-03  0.88900E-03  0.16488E-02  0.23957E-02
  0.31057E-02  0.37685E-02  0.43549E-02  0.48266E-02  0.51526E-02  0.53175E-02
  0.53175E-02  0.51526E-02  0.48266E-02  0.43549E-02  0.37685E-02  0.31057E-02
  0.23957E-02  0.16488E-02  0.88900E-03  0.58472E-03  0.13494E-02  0.22392E-02
  0.31132E-03  0.21959E-03  0.18483E-03  0.27173E-03  0.36706E-03  0.43666E-03
  0.49039E-03  0.52234E-03  0.51607E-03  0.47572E-03  0.46332E-03  0.57309E-03
  0.78961E-03  0.10223E-02  0.11977E-02  0.12710E-02  0.12260E-02  0.10711E-02
  0.83696E-03  0.59895E-03  0.53249E-03  0.69557E-03  0.87960E-03  0.97619E-03
  0.10121E-02  0.10825E-02  0.12500E-02  0.14473E-02  0.15189E-02  0.13475E-02
  0.93935E-03  0.50827E-03  0.73675E-03  0.13842E-02  0.20804E-02  0.27696E-02
  0.34287E-02  0.40313E-02  0.45492E-02  0.49579E-02  0.52390E-02  0.53819E-02
  0.53819E-02  0.52390E-02  0.49579E-02  0.45492E-02  0.40313E-02  0.34287E-02
  0.27696E-02  0.20804E-02  0.13842E-02  0.73676E-03  0.50827E-03  0.93936E-03
  0.64085E-03  0.53385E-03  0.48941E-03  0.49713E-03  0.52561E-03  0.54925E-03
  0.56086E-03  0.56647E-03  0.58634E-03  0.65710E-03  0.80648E-03  0.10206E-02
  0.12553E-02  0.14629E-02  0.16018E-02  0.16403E-02  0.15640E-02  0.13812E-02
  0.11205E-02  0.83013E-03  0.60472E-03  0.59004E-03  0.74185E-03  0.88115E-03
  0.93880E-03  0.93187E-03  0.90107E-03  0.85650E-03  0.76221E-03  0.58475E-03
  0.41792E-03  0.61319E-03  0.11071E-02  0.17008E-02  0.23298E-02  0.29573E-02
  0.35491E-02  0.40753E-02  0.45153E-02  0.48566E-02  0.50904E-02  0.52095E-02
  0.52095E-02  0.50904E-02  0.48566E-02  0.45153E-02  0.40753E-02  0.35491E-02
  0.29573E-02  0.23298E-02  0.17008E-02  0.11071E-02  0.61320E-03  0.41792E-03
  0.90227E-03  0.79295E-03  0.72128E-03  0.68604E-03  0.67877E-03  0.69149E-03
  0.72213E-03  0.77675E-03  0.86895E-03  0.10107E-02  0.11983E-02  0.14098E-02
  0.16144E-02  0.17819E-02  0.18843E-02  0.18960E-02  0.18023E-02  0.16088E-02
  0.13434E-02  0.10474E-02  0.77713E-03  0.62233E-03  0.64828E-03  0.76218E-03
  0.84458E-03  0.85300E-03  0.79380E-03  0.68573E-03  0.54584E-03  0.42752E-03
  0.50326E-03  0.83330E-03  0.13018E-02  0.18383E-02  0.23994E-02  0.29479E-02
  0.34521E-02  0.38901E-02  0.42496E-02  0.45249E-02  0.47119E-02  0.48068E-02
  0.48068E-02  0.47119E-02  0.45249E-02  0.42496E-02  0.38901E-02  0.34521E-02
  0.29479E-02  0.23994E-02  0.18383E-02  0.13018E-02  0.83331E-03  0.50326E-03
  0.10099E-02  0.91172E-03  0.83435E-03  0.78311E-03  0.76430E-03  0.78416E-03
  0.84529E-03  0.94561E-03  0.10806E-02  0.12443E-02  0.14269E-02  0.16127E-02
  0.17815E-02  0.19121E-02  0.19838E-02  0.19768E-02  0.18790E-02  0.16944E-02
  0.14460E-02  0.11700E-02  0.90891E-03  0.71497E-03  0.63954E-03  0.66887E-03
  0.72143E-03  0.73466E-03  0.68958E-03  0.59662E-03  0.49186E-03  0.46418E-03
  0.62134E-03  0.94250E-03  0.13594E-02  0.18234E-02  0.22953E-02  0.27437E-02
  0.31469E-02  0.34924E-02  0.37736E-02  0.39864E-02  0.41284E-02  0.41991E-02
  0.41991E-02  0.41284E-02  0.39864E-02  0.37736E-02  0.34924E-02  0.31469E-02
  0.27437E-02  0.22953E-02  0.18234E-02  0.13594E-02  0.94250E-03  0.62134E-03
  0.98136E-03  0.89775E-03  0.82632E-03  0.77584E-03  0.75982E-03  0.79090E-03
  0.87160E-03  0.99150E-03  0.11345E-02  0.12883E-02  0.14462E-02  0.16000E-02
  0.17356E-02  0.18347E-02  0.18800E-02  0.18595E-02  0.17683E-02  0.16113E-02
  0.14043E-02  0.11728E-02  0.95006E-03  0.77368E-03  0.67291E-03  0.64275E-03
  0.64252E-03  0.63191E-03  0.59349E-03  0.53553E-03  0.49575E-03  0.53804E-03
  0.70109E-03  0.96633E-03  0.12979E-02  0.16612E-02  0.20246E-02  0.23639E-02
  0.26651E-02  0.29214E-02  0.31280E-02  0.32811E-02  0.33797E-02  0.34271E-02
  0.34271E-02  0.33797E-02  0.32811E-02  0.31280E-02  0.29214E-02  0.26651E-02
  0.23639E-02  0.20246E-02  0.16612E-02  0.12979E-02  0.96633E-03  0.70109E-03
  0.84265E-03  0.77798E-03  0.72106E-03  0.68135E-03  0.67261E-03  0.70678E-03
  0.78451E-03  0.89305E-03  0.10152E-02  0.11404E-02  0.12660E-02  0.13877E-02
  0.14933E-02  0.15649E-02  0.15887E-02  0.15605E-02  0.14844E-02  0.13683E-02
  0.12214E-02  0.10572E-02  0.89799E-03  0.77100E-03  0.69239E-03  0.65238E-03
  0.62635E-03  0.59708E-03  0.56287E-03  0.53667E-03  0.54252E-03  0.60343E-03
  0.72667E-03  0.90519E-03  0.11256E-02  0.13695E-02  0.16159E-02  0.18465E-02
  0.20505E-02  0.22223E-02  0.23578E-02  0.24542E-02  0.25127E-02  0.25390E-02
  0.25390E-02  0.25127E-02  0.24542E-02  0.23578E-02  0.22223E-02  0.20505E-02
  0.18465E-02  0.16159E-02  0.13695E-02  0.11256E-02  0.90519E-03  0.72667E-03
  0.62499E-03  0.58272E-03  0.54577E-03  0.52155E-03  0.51952E-03  0.54709E-03
  0.60373E-03  0.68054E-03  0.76672E-03  0.85638E-03  0.94792E-03  0.10370E-02
  0.11121E-02  0.11590E-02  0.11685E-02  0.11415E-02  0.10871E-02  0.10156E-02
  0.93523E-03  0.85290E-03  0.77894E-03  0.72418E-03  0.68954E-03  0.66360E-03
  0.63474E-03  0.60198E-03  0.57528E-03  0.56849E-03  0.59026E-03  0.63961E-03
  0.71030E-03  0.79777E-03  0.90047E-03  0.10157E-02  0.11365E-02  0.12529E-02
  0.13569E-02  0.14434E-02  0.15092E-02  0.15529E-02  0.15766E-02  0.15858E-02
  0.15858E-02  0.15766E-02  0.15529E-02  0.15092E-02  0.14434E-02  0.13569E-02
  0.12529E-02  0.11365E-02  0.10157E-02  0.90047E-03  0.79777E-03  0.71030E-03
  0.40940E-03  0.38678E-03  0.36866E-03  0.35946E-03  0.36322E-03  0.38235E-03