       #
       # Generated by the Wannier90 code http://www.wannier.org
       # On 10May2024 at 21:04:43 
       #
CRYSTAL
PRIMVEC
   2.7281430   0.0000000   0.0000000
   0.0000000   2.7281430   0.0000000
   0.0000000   0.0000000   3.7789840
CONVVEC
   2.7281430   0.0000000   0.0000000
   0.0000000   2.7281430   0.0000000
   0.0000000   0.0000000   3.7789840
PRIMCOORD
     2  1
Fe      0.0000000   0.0000000   0.0000000
Pt      1.3640715   1.3640715   1.8894920


BEGIN_BLOCK_DATAGRID_3D
3D_field
BEGIN_DATAGRID_3D_UNKNOWN
    54    54    80
   -2.829185   -2.829185   -3.873459
   5.3552437   0.0000000   0.0000000
   0.0000000   5.3552437   0.0000000
   0.0000000   0.0000000   7.4634934
  0.26084E-01  0.18214E-01  0.78276E-02  0.22144E-02  0.48335E-02  0.43751E-02
  0.25913E-02  0.14710E-02  0.13261E-02  0.14067E-02  0.11800E-02  0.67138E-03
  0.74476E-03  0.16239E-02  0.26881E-02  0.37340E-02  0.45576E-02  0.49922E-02
  0.49163E-02  0.41827E-02  0.26702E-02  0.75562E-03  0.20670E-02  0.35230E-02
  0.35964E-02  0.28688E-02  0.35880E-02  0.52936E-02  0.60572E-02  0.52936E-02
  0.35880E-02  0.28688E-02  0.35964E-02  0.35230E-02  0.20670E-02  0.75562E-03
  0.26702E-02  0.41827E-02  0.49163E-02  0.49922E-02  0.45576E-02  0.37340E-02
  0.26881E-02  0.16239E-02  0.74476E-03  0.67138E-03  0.11800E-02  0.14067E-02
  0.13261E-02  0.14710E-02  0.25913E-02  0.43751E-02  0.48335E-02  0.22144E-02
  0.18214E-01  0.79222E-02  0.42049E-02  0.10963E-01  0.11818E-01  0.82737E-02
  0.37559E-02  0.72349E-03  0.79078E-03  0.12766E-02  0.17802E-02  0.25300E-02
  0.34266E-02  0.43904E-02  0.53926E-02  0.63242E-02  0.69988E-02  0.72582E-02
  0.69855E-02  0.60275E-02  0.42355E-02  0.17487E-02  0.14286E-02  0.36099E-02
  0.47608E-02  0.47283E-02  0.38052E-02  0.23301E-02  0.11886E-02  0.23300E-02
  0.38052E-02  0.47283E-02  0.47609E-02  0.36099E-02  0.14286E-02  0.17487E-02
  0.42355E-02  0.60276E-02  0.69855E-02  0.72582E-02  0.69988E-02  0.63242E-02
  0.53926E-02  0.43904E-02  0.34266E-02  0.25300E-02  0.17802E-02  0.12766E-02
  0.79078E-03  0.72349E-03  0.37559E-02  0.82737E-02  0.11818E-01  0.10963E-01
  0.78276E-02  0.42049E-02  0.13998E-01  0.18587E-01  0.16534E-01  0.10369E-01
  0.38977E-02  0.51279E-03  0.26347E-02  0.36213E-02  0.43988E-02  0.52631E-02
  0.61642E-02  0.70659E-02  0.79646E-02  0.87640E-02  0.92888E-02  0.93939E-02
  0.89755E-02  0.78897E-02  0.59834E-02  0.33148E-02  0.73431E-03  0.28133E-02
  0.49480E-02  0.63087E-02  0.69637E-02  0.71092E-02  0.70873E-02  0.71092E-02
  0.69637E-02  0.63087E-02  0.49480E-02  0.28133E-02  0.73431E-03  0.33148E-02
  0.59834E-02  0.78897E-02  0.89755E-02  0.93939E-02  0.92888E-02  0.87640E-02
  0.79646E-02  0.70659E-02  0.61642E-02  0.52631E-02  0.43988E-02  0.36213E-02
  0.26347E-02  0.51278E-03  0.38977E-02  0.10369E-01  0.16534E-01  0.18587E-01
  0.22144E-02  0.10963E-01  0.18587E-01  0.20537E-01  0.16499E-01  0.92577E-02
  0.23313E-02  0.23031E-02  0.47078E-02  0.59534E-02  0.68955E-02  0.78032E-02
  0.86629E-02  0.94789E-02  0.10263E-01  0.10924E-01  0.11304E-01  0.11276E-01
  0.10755E-01  0.96185E-02  0.77312E-02  0.51230E-02  0.21439E-02  0.12034E-02
  0.37138E-02  0.59213E-02  0.76726E-02  0.88265E-02  0.92315E-02  0.88265E-02
  0.76726E-02  0.59213E-02  0.37138E-02  0.12034E-02  0.21439E-02  0.51230E-02
  0.77312E-02  0.96185E-02  0.10755E-01  0.11276E-01  0.11304E-01  0.10924E-01
  0.10263E-01  0.94789E-02  0.86629E-02  0.78032E-02  0.68955E-02  0.59534E-02
  0.47078E-02  0.23031E-02  0.23313E-02  0.92577E-02  0.16499E-01  0.20537E-01
  0.48335E-02  0.11818E-01  0.16534E-01  0.16499E-01  0.11955E-01  0.53424E-02
  0.63741E-03  0.46200E-02  0.68360E-02  0.81380E-02  0.91423E-02  0.10030E-01
  0.10813E-01  0.11530E-01  0.12192E-01  0.12711E-01  0.12944E-01  0.12791E-01
  0.12186E-01  0.11031E-01  0.92240E-02  0.68018E-02  0.40323E-02  0.13605E-02
  0.15404E-02  0.37341E-02  0.56573E-02  0.70175E-02  0.75155E-02  0.70175E-02
  0.56573E-02  0.37341E-02  0.15404E-02  0.13605E-02  0.40323E-02  0.68018E-02
  0.92240E-02  0.11031E-01  0.12186E-01  0.12791E-01  0.12944E-01  0.12711E-01
  0.12192E-01  0.11530E-01  0.10813E-01  0.10030E-01  0.91423E-02  0.81380E-02
  0.68360E-02  0.46200E-02  0.63741E-03  0.53424E-02  0.11955E-01  0.16499E-01
  0.43751E-02  0.82737E-02  0.10369E-01  0.92577E-02  0.53424E-02  0.36250E-03
  0.40176E-02  0.70044E-02  0.88483E-02  0.10090E-01  0.11070E-01  0.11882E-01
  0.12563E-01  0.13170E-01  0.13702E-01  0.14069E-01  0.14150E-01  0.13868E-01
  0.13173E-01  0.11990E-01  0.10256E-01  0.80257E-02  0.55425E-02  0.31392E-02
  0.11225E-02  0.11590E-02  0.25692E-02  0.36100E-02  0.39933E-02  0.36100E-02
  0.25692E-02  0.11590E-02  0.11225E-02  0.31392E-02  0.55425E-02  0.80257E-02
  0.10256E-01  0.11990E-01  0.13173E-01  0.13868E-01  0.14150E-01  0.14069E-01
  0.13702E-01  0.13170E-01  0.12563E-01  0.11882E-01  0.11070E-01  0.10090E-01
  0.88483E-02  0.70044E-02  0.40176E-02  0.36250E-03  0.53424E-02  0.92577E-02
  0.25913E-02  0.37559E-02  0.38977E-02  0.23313E-02  0.63741E-03  0.40176E-02
  0.69444E-02  0.90941E-02  0.10613E-01  0.11749E-01  0.12640E-01  0.13338E-01
  0.13904E-01  0.14391E-01  0.14780E-01  0.14983E-01  0.14905E-01  0.14488E-01
  0.13691E-01  0.12459E-01  0.10757E-01  0.86574E-02  0.63812E-02  0.42286E-02
  0.24312E-02  0.10826E-02  0.47882E-03  0.87485E-03  0.10803E-02  0.87485E-03
  0.47882E-03  0.10826E-02  0.24312E-02  0.42286E-02  0.63812E-02  0.86574E-02
  0.10757E-01  0.12459E-01  0.13691E-01  0.14488E-01  0.14905E-01  0.14983E-01
  0.14780E-01  0.14391E-01  0.13904E-01  0.13338E-01  0.12640E-01  0.11749E-01
  0.10613E-01  0.90941E-02  0.69444E-02  0.40176E-02  0.63741E-03  0.23313E-02
  0.14710E-02  0.72349E-03  0.51279E-03  0.23031E-02  0.46200E-02  0.70044E-02
  0.90941E-02  0.10768E-01  0.12073E-01  0.13080E-01  0.13839E-01  0.14409E-01
  0.14856E-01  0.15210E-01  0.15440E-01  0.15471E-01  0.15236E-01  0.14689E-01
  0.13788E-01  0.12493E-01  0.10793E-01  0.87641E-02  0.65904E-02  0.45303E-02
  0.28191E-02  0.15770E-02  0.79320E-03  0.39723E-03  0.29688E-03  0.39722E-03
  0.79320E-03  0.15770E-02  0.28191E-02  0.45303E-02  0.65904E-02  0.87641E-02
  0.10793E-01  0.12493E-01  0.13788E-01  0.14689E-01  0.15236E-01  0.15471E-01
  0.15440E-01  0.15210E-01  0.14856E-01  0.14409E-01  0.13839E-01  0.13080E-01
  0.12073E-01  0.10768E-01  0.90941E-02  0.70044E-02  0.46200E-02  0.23031E-02
  0.13261E-02  0.79078E-03  0.26347E-02  0.47078E-02  0.68360E-02  0.88483E-02
  0.10613E-01  0.12073E-01  0.13221E-01  0.14076E-01  0.14690E-01  0.15133E-01
  0.15457E-01  0.15666E-01  0.15725E-01  0.15589E-01  0.15214E-01  0.14553E-01
  0.13562E-01  0.12210E-01  0.10510E-01  0.85314E-02  0.64135E-02  0.43568E-02
  0.25847E-02  0.13148E-02  0.82264E-03  0.94970E-03  0.10463E-02  0.94970E-03
  0.82264E-03  0.13148E-02  0.25847E-02  0.43568E-02  0.64135E-02  0.85314E-02
  0.10510E-01  0.12210E-01  0.13562E-01  0.14553E-01  0.15214E-01  0.15589E-01
  0.15725E-01  0.15666E-01  0.15457E-01  0.15133E-01  0.14690E-01  0.14076E-01
  0.13221E-01  0.12073E-01  0.10613E-01  0.88483E-02  0.68360E-02  0.47078E-02
  0.14067E-02  0.12766E-02  0.36213E-02  0.59534E-02  0.81380E-02  0.10090E-01
  0.11749E-01  0.13080E-01  0.14076E-01  0.14777E-01  0.15254E-01  0.15574E-01
  0.15766E-01  0.15818E-01  0.15711E-01  0.15431E-01  0.14946E-01  0.14204E-01
  0.13152E-01  0.11772E-01  0.10093E-01  0.81793E-02  0.61323E-02  0.40961E-02
  0.22611E-02  0.94819E-03  0.10005E-02  0.15404E-02  0.17456E-02  0.15404E-02
  0.10005E-02  0.94819E-03  0.22611E-02  0.40961E-02  0.61323E-02  0.81793E-02
  0.10093E-01  0.11772E-01  0.13152E-01  0.14204E-01  0.14946E-01  0.15431E-01
  0.15711E-01  0.15818E-01  0.15766E-01  0.15574E-01  0.15254E-01  0.14777E-01
  0.14076E-01  0.13080E-01  0.11749E-01  0.10090E-01  0.81380E-02  0.59534E-02
  0.11800E-02  0.17802E-02  0.43988E-02  0.68955E-02  0.91423E-02  0.11070E-01
  0.12640E-01  0.13839E-01  0.14690E-01  0.15254E-01  0.15606E-01  0.15798E-01
  0.15843E-01  0.15738E-01  0.15490E-01  0.15106E-01  0.14555E-01  0.13777E-01
  0.12716E-01  0.11360E-01  0.97431E-02  0.79261E-02  0.59875E-02  0.40338E-02
  0.22118E-02  0.79869E-03  0.95811E-03  0.16374E-02  0.18875E-02  0.16374E-02
  0.95811E-03  0.79869E-03  0.22118E-02  0.40338E-02  0.59875E-02  0.79261E-02
  0.97431E-02  0.11360E-01  0.12716E-01  0.13777E-01  0.14555E-01  0.15106E-01
  0.15490E-01  0.15738E-01  0.15843E-01  0.15798E-01  0.15606E-01  0.15254E-01
  0.14690E-01  0.13839E-01  0.12640E-01  0.11070E-01  0.91423E-02  0.68955E-02
  0.67138E-03  0.25300E-02  0.52631E-02  0.78032E-02  0.10030E-01  0.11882E-01
  0.13338E-01  0.14409E-01  0.15133E-01  0.15574E-01  0.15798E-01  0.15846E-01
  0.15740E-01  0.15501E-01  0.15157E-01  0.14720E-01  0.14156E-01  0.13400E-01
  0.12398E-01  0.11136E-01  0.96396E-02  0.79601E-02  0.61644E-02  0.43418E-02
  0.26075E-02  0.11114E-02  0.44849E-03  0.10440E-02  0.12955E-02  0.10440E-02
  0.44849E-03  0.11114E-02  0.26075E-02  0.43418E-02  0.61644E-02  0.79601E-02
  0.96396E-02  0.11136E-01  0.12398E-01  0.13400E-01  0.14156E-01  0.14720E-01
  0.15157E-01  0.15501E-01  0.15740E-01  0.15846E-01  0.15798E-01  0.15574E-01
  0.15133E-01  0.14409E-01  0.13338E-01  0.11882E-01  0.10030E-01  0.78032E-02
  0.74476E-03  0.34266E-02  0.61642E-02  0.86629E-02  0.10813E-01  0.12563E-01
  0.13904E-01  0.14856E-01  0.15457E-01  0.15766E-01  0.15843E-01  0.15740E-01
  0.15503E-01  0.15175E-01  0.14793E-01  0.14361E-01  0.13841E-01  0.13171E-01
  0.12299E-01  0.11203E-01  0.98891E-02  0.83923E-02  0.67709E-02  0.51075E-02
  0.35051E-02  0.20799E-02  0.95442E-03  0.26803E-03  0.17642E-03  0.26803E-03
  0.95443E-03  0.20799E-02  0.35051E-02  0.51075E-02  0.67709E-02  0.83923E-02
  0.98891E-02  0.11203E-01  0.12299E-01  0.13171E-01  0.13841E-01  0.14361E-01
  0.14793E-01  0.15175E-01  0.15503E-01  0.15740E-01  0.15843E-01  0.15766E-01
  0.15457E-01  0.14856E-01  0.13904E-01  0.12563E-01  0.10813E-01  0.86629E-02
  0.16239E-02  0.43904E-02  0.70659E-02  0.94789E-02  0.11530E-01  0.13170E-01
  0.14391E-01  0.15210E-01  0.15666E-01  0.15818E-01  0.15738E-01  0.15501E-01
  0.15175E-01  0.14817E-01  0.14457E-01  0.14090E-01  0.13673E-01  0.13149E-01
  0.12466E-01  0.11588E-01  0.10503E-01  0.92274E-02  0.78098E-02  0.63263E-02
  0.48747E-02  0.35689E-02  0.25276E-02  0.18554E-02  0.16232E-02  0.18554E-02
  0.25276E-02  0.35689E-02  0.48747E-02  0.63263E-02  0.78098E-02  0.92274E-02
  0.10503E-01  0.11588E-01  0.12466E-01  0.13149E-01  0.13673E-01  0.14090E-01
  0.14457E-01  0.14817E-01  0.15175E-01  0.15501E-01  0.15738E-01  0.15818E-01
  0.15666E-01  0.15210E-01  0.14391E-01  0.13170E-01  0.11530E-01  0.94789E-02
  0.26881E-02  0.53926E-02  0.79646E-02  0.10263E-01  0.12192E-01  0.13702E-01
  0.14780E-01  0.15440E-01  0.15725E-01  0.15711E-01  0.15490E-01  0.15157E-01
  0.14793E-01  0.14457E-01  0.14174E-01  0.13928E-01  0.13673E-01  0.13346E-01
  0.12890E-01  0.12257E-01  0.11421E-01  0.10385E-01  0.91861E-02  0.78912E-02
  0.65947E-02  0.54127E-02  0.44661E-02  0.38565E-02  0.36465E-02  0.38565E-02
  0.44661E-02  0.54127E-02  0.65947E-02  0.78912E-02  0.91861E-02  0.10385E-01
  0.11421E-01  0.12257E-01  0.12890E-01  0.13346E-01  0.13673E-01  0.13928E-01
  0.14174E-01  0.14457E-01  0.14793E-01  0.15157E-01  0.15490E-01  0.15711E-01
  0.15725E-01  0.15440E-01  0.14780E-01  0.13702E-01  0.12192E-01  0.10263E-01
  0.37340E-02  0.63242E-02  0.87640E-02  0.10924E-01  0.12711E-01  0.14069E-01
  0.14983E-01  0.15471E-01  0.15589E-01  0.15431E-01  0.15106E-01  0.14720E-01
  0.14361E-01  0.14090E-01  0.13928E-01  0.13854E-01  0.13808E-01  0.13716E-01
  0.13509E-01  0.13130E-01  0.12542E-01  0.11738E-01  0.10741E-01  0.96133E-02
  0.84496E-02  0.73717E-02  0.65037E-02  0.59444E-02  0.57519E-02  0.59444E-02
  0.65037E-02  0.73717E-02  0.84496E-02  0.96133E-02  0.10741E-01  0.11738E-01
  0.12542E-01  0.13130E-01  0.13509E-01  0.13716E-01  0.13808E-01  0.13854E-01
  0.13928E-01  0.14090E-01  0.14361E-01  0.14720E-01  0.15106E-01  0.15431E-01
  0.15589E-01  0.15471E-01  0.14983E-01  0.14069E-01  0.12711E-01  0.10924E-01
  0.45576E-02  0.69988E-02  0.92888E-02  0.11304E-01  0.12944E-01  0.14150E-01
  0.14905E-01  0.15236E-01  0.15214E-01  0.14946E-01  0.14555E-01  0.14156E-01
  0.13841E-01  0.13673E-01  0.13673E-01  0.13808E-01  0.14004E-01  0.14170E-01
  0.14222E-01  0.14095E-01  0.13738E-01  0.13129E-01  0.12282E-01  0.11262E-01
  0.10175E-01  0.91509E-02  0.83185E-02  0.77785E-02  0.75918E-02  0.77785E-02
  0.83185E-02  0.91509E-02  0.10175E-01  0.11262E-01  0.12282E-01  0.13129E-01
  0.13738E-01  0.14095E-01  0.14222E-01  0.14170E-01  0.14004E-01  0.13808E-01
  0.13673E-01  0.13673E-01  0.13841E-01  0.14156E-01  0.14555E-01  0.14946E-01
  0.15214E-01  0.15236E-01  0.14905E-01  0.14150E-01  0.12944E-01  0.11304E-01
  0.49922E-02  0.72582E-02  0.93939E-02  0.11276E-01  0.12791E-01  0.13868E-01
  0.14488E-01  0.14689E-01  0.14553E-01  0.14204E-01  0.13777E-01  0.13400E-01
  0.13171E-01  0.13149E-01  0.13346E-01  0.13716E-01  0.14170E-01  0.14600E-01
  0.14909E-01  0.15014E-01  0.14846E-01  0.14370E-01  0.13598E-01  0.12607E-01
  0.11518E-01  0.10475E-01  0.96122E-02  0.90429E-02  0.88439E-02  0.90429E-02
  0.96122E-02  0.10475E-01  0.11518E-01  0.12607E-01  0.13598E-01  0.14370E-01
  0.14846E-01  0.15014E-01  0.14909E-01  0.14600E-01  0.14170E-01  0.13716E-01
  0.13346E-01  0.13149E-01  0.13171E-01  0.13400E-01  0.13777E-01  0.14204E-01
  0.14553E-01  0.14689E-01  0.14488E-01  0.13868E-01  0.12791E-01  0.11276E-01
  0.49163E-02  0.69855E-02  0.89755E-02  0.10755E-01  0.12186E-01  0.13173E-01
  0.13691E-01  0.13788E-01  0.13562E-01  0.13152E-01  0.12716E-01  0.12398E-01
  0.12299E-01  0.12466E-01  0.12890E-01  0.13509E-01  0.14222E-01  0.14909E-01
  0.15451E-01  0.15740E-01  0.15693E-01  0.15268E-01  0.14485E-01  0.13431E-01
  0.12244E-01  0.11080E-01  0.10095E-01  0.94308E-02  0.91959E-02  0.94308E-02
  0.10095E-01  0.11080E-01  0.12244E-01  0.13431E-01  0.14485E-01  0.15268E-01
  0.15693E-01  0.15740E-01  0.15451E-01  0.14909E-01  0.14222E-01  0.13509E-01
  0.12890E-01  0.12466E-01  0.12299E-01  0.12398E-01  0.12716E-01  0.13152E-01
  0.13562E-01  0.13788E-01  0.13691E-01  0.13173E-01  0.12186E-01  0.10755E-01
  0.41827E-02  0.60276E-02  0.78897E-02  0.96185E-02  0.11031E-01  0.11990E-01
  0.12459E-01  0.12493E-01  0.12210E-01  0.11772E-01  0.11360E-01  0.11136E-01
  0.11203E-01  0.11588E-01  0.12257E-01  0.13130E-01  0.14095E-01  0.15014E-01
  0.15740E-01  0.16143E-01  0.16131E-01  0.15661E-01  0.14758E-01  0.13512E-01
  0.12074E-01  0.10630E-01  0.93871E-02  0.85421E-02  0.82422E-02  0.85421E-02
  0.93871E-02  0.10630E-01  0.12074E-01  0.13512E-01  0.14758E-01  0.15661E-01
  0.16131E-01  0.16143E-01  0.15740E-01  0.15014E-01  0.14095E-01  0.13130E-01
  0.12257E-01  0.11588E-01  0.11203E-01  0.11136E-01  0.11360E-01  0.11772E-01
  0.12210E-01  0.12493E-01  0.12459E-01  0.11990E-01  0.11031E-01  0.96185E-02
  0.26702E-02  0.42355E-02  0.59834E-02  0.77312E-02  0.92240E-02  0.10256E-01
  0.10757E-01  0.10793E-01  0.10510E-01  0.10093E-01  0.97431E-02  0.96396E-02
  0.98891E-02  0.10503E-01  0.11421E-01  0.12542E-01  0.13738E-01  0.14846E-01
  0.15693E-01  0.16131E-01  0.16058E-01  0.15428E-01  0.14249E-01  0.12608E-01
  0.10689E-01  0.87547E-02  0.71071E-02  0.60117E-02  0.56308E-02  0.60117E-02
  0.71071E-02  0.87547E-02  0.10689E-01  0.12608E-01  0.14249E-01  0.15428E-01
  0.16058E-01  0.16131E-01  0.15693E-01  0.14846E-01  0.13738E-01  0.12542E-01
  0.11421E-01  0.10503E-01  0.98891E-02  0.96396E-02  0.97431E-02  0.10093E-01
  0.10510E-01  0.10793E-01  0.10757E-01  0.10256E-01  0.92240E-02  0.77312E-02
  0.75562E-03  0.17487E-02  0.33148E-02  0.51230E-02  0.68018E-02  0.80257E-02
  0.86574E-02  0.87641E-02  0.85314E-02  0.81793E-02  0.79261E-02  0.79601E-02
  0.83923E-02  0.92274E-02  0.10385E-01  0.11738E-01  0.13129E-01  0.14370E-01
  0.15268E-01  0.15661E-01  0.15428E-01  0.14488E-01  0.12822E-01  0.10536E-01
  0.79089E-02  0.53606E-02  0.33750E-02  0.23402E-02  0.21106E-02  0.23402E-02
  0.33750E-02  0.53606E-02  0.79089E-02  0.10536E-01  0.12822E-01  0.14488E-01
  0.15428E-01  0.15661E-01  0.15268E-01  0.14370E-01  0.13129E-01  0.11738E-01
  0.10385E-01  0.92274E-02  0.83923E-02  0.79601E-02  0.79261E-02  0.81793E-02
  0.85314E-02  0.87641E-02  0.86574E-02  0.80257E-02  0.68018E-02  0.51230E-02
  0.20670E-02  0.14286E-02  0.73431E-03  0.21439E-02  0.40323E-02  0.55425E-02
  0.63812E-02  0.65904E-02  0.64135E-02  0.61323E-02  0.59875E-02  0.61644E-02
  0.67709E-02  0.78098E-02  0.91861E-02  0.10741E-01  0.12282E-01  0.13598E-01
  0.14485E-01  0.14758E-01  0.14249E-01  0.12822E-01  0.10452E-01  0.73464E-02
  0.40045E-02  0.16264E-02  0.27119E-02  0.41509E-02  0.46663E-02  0.41509E-02
  0.27119E-02  0.16264E-02  0.40045E-02  0.73464E-02  0.10452E-01  0.12822E-01
  0.14249E-01  0.14758E-01  0.14485E-01  0.13598E-01  0.12282E-01  0.10741E-01
  0.91861E-02  0.78098E-02  0.67709E-02  0.61644E-02  0.59875E-02  0.61323E-02
  0.64135E-02  0.65904E-02  0.63812E-02  0.55425E-02  0.40323E-02  0.21439E-02
  0.35230E-02  0.36099E-02  0.28133E-02  0.12034E-02  0.13605E-02  0.31392E-02
  0.42286E-02  0.45303E-02  0.43568E-02  0.40961E-02  0.40338E-02  0.43418E-02
  0.51075E-02  0.63263E-02  0.78912E-02  0.96133E-02  0.11262E-01  0.12607E-01
  0.13431E-01  0.13512E-01  0.12608E-01  0.10536E-01  0.73464E-02  0.35084E-02
  0.15896E-02  0.45427E-02  0.69842E-02  0.84051E-02  0.88603E-02  0.84051E-02
  0.69842E-02  0.45427E-02  0.15896E-02  0.35084E-02  0.73464E-02  0.10536E-01
  0.12608E-01  0.13512E-01  0.13431E-01  0.12607E-01  0.11262E-01  0.96133E-02
  0.78912E-02  0.63263E-02  0.51075E-02  0.43418E-02  0.40338E-02  0.40961E-02
  0.43568E-02  0.45303E-02  0.42286E-02  0.31392E-02  0.13605E-02  0.12034E-02
  0.35964E-02  0.47608E-02  0.49480E-02  0.37138E-02  0.15404E-02  0.11225E-02
  0.24312E-02  0.28191E-02  0.25847E-02  0.22611E-02  0.22118E-02  0.26075E-02
  0.35051E-02  0.48747E-02  0.65947E-02  0.84496E-02  0.10175E-01  0.11518E-01
  0.12244E-01  0.12074E-01  0.10689E-01  0.79089E-02  0.40045E-02  0.15896E-02
  0.51785E-02  0.82485E-02  0.10126E-01  0.11010E-01  0.11250E-01  0.11010E-01
  0.10126E-01  0.82485E-02  0.51785E-02  0.15896E-02  0.40045E-02  0.79089E-02
  0.10689E-01  0.12074E-01  0.12244E-01  0.11518E-01  0.10175E-01  0.84496E-02
  0.65947E-02  0.48747E-02  0.35051E-02  0.26075E-02  0.22118E-02  0.22611E-02
  0.25847E-02  0.28191E-02  0.24312E-02  0.11225E-02  0.15404E-02  0.37138E-02
  0.28688E-02  0.47283E-02  0.63087E-02  0.59213E-02  0.37341E-02  0.11590E-02
  0.10826E-02  0.15770E-02  0.13148E-02  0.94819E-03  0.79869E-03  0.11114E-02
  0.20799E-02  0.35689E-02  0.54127E-02  0.73717E-02  0.91509E-02  0.10475E-01
  0.11080E-01  0.10630E-01  0.87547E-02  0.53606E-02  0.16264E-02  0.45427E-02
  0.82485E-02  0.10529E-01  0.11434E-01  0.11523E-01  0.11451E-01  0.11523E-01
  0.11434E-01  0.10529E-01  0.82485E-02  0.45427E-02  0.16264E-02  0.53606E-02
  0.87547E-02  0.10630E-01  0.11080E-01  0.10475E-01  0.91509E-02  0.73717E-02
  0.54127E-02  0.35689E-02  0.20799E-02  0.11114E-02  0.79869E-03  0.94819E-03
  0.13148E-02  0.15770E-02  0.10826E-02  0.11590E-02  0.37341E-02  0.59213E-02
  0.35880E-02  0.38052E-02  0.69637E-02  0.76726E-02  0.56573E-02  0.25692E-02
  0.47882E-03  0.79320E-03  0.82264E-03  0.10004E-02  0.95810E-03  0.44849E-03
  0.95443E-03  0.25276E-02  0.44661E-02  0.65037E-02  0.83185E-02  0.96122E-02
  0.10095E-01  0.93871E-02  0.71071E-02  0.33750E-02  0.27119E-02  0.69842E-02
  0.10126E-01  0.11434E-01  0.11234E-01  0.10336E-01  0.98256E-02  0.10336E-01
  0.11234E-01  0.11434E-01  0.10126E-01  0.69842E-02  0.27119E-02  0.33750E-02
  0.71071E-02  0.93871E-02  0.10095E-01  0.96122E-02  0.83185E-02  0.65037E-02
  0.44661E-02  0.25276E-02  0.95443E-03  0.44849E-03  0.95810E-03  0.10004E-02
  0.82264E-03  0.79320E-03  0.47882E-03  0.25692E-02  0.56573E-02  0.76726E-02
  0.52936E-02  0.23300E-02  0.71092E-02  0.88265E-02  0.70175E-02  0.36100E-02
  0.87485E-03  0.39722E-03  0.94970E-03  0.15404E-02  0.16374E-02  0.10440E-02
  0.26803E-03  0.18554E-02  0.38565E-02  0.59444E-02  0.77785E-02  0.90429E-02
  0.94308E-02  0.85421E-02  0.60117E-02  0.23402E-02  0.41509E-02  0.84051E-02
  0.11010E-01  0.11523E-01  0.10336E-01  0.82733E-02  0.70777E-02  0.82733E-02
  0.10336E-01  0.11523E-01  0.11010E-01  0.84051E-02  0.41509E-02  0.23402E-02
  0.60117E-02  0.85421E-02  0.94308E-02  0.90429E-02  0.77785E-02  0.59444E-02
  0.38565E-02  0.18554E-02  0.26803E-03  0.10440E-02  0.16374E-02  0.15404E-02
  0.94970E-03  0.39722E-03  0.87485E-03  0.36100E-02  0.70175E-02  0.88265E-02
  0.60572E-02  0.11886E-02  0.70873E-02  0.92315E-02  0.75155E-02  0.39933E-02
  0.10803E-02  0.29688E-03  0.10463E-02  0.17456E-02  0.18875E-02  0.12955E-02
  0.17641E-03  0.16232E-02  0.36465E-02  0.57519E-02  0.75918E-02  0.88439E-02
  0.91959E-02  0.82422E-02  0.56308E-02  0.21106E-02  0.46663E-02  0.88603E-02
  0.11250E-01  0.11451E-01  0.98256E-02  0.70777E-02  0.53072E-02  0.70777E-02
  0.98256E-02  0.11451E-01  0.11250E-01  0.88603E-02  0.46663E-02  0.21106E-02
  0.56308E-02  0.82422E-02  0.91959E-02  0.88439E-02  0.75918E-02  0.57519E-02
  0.36465E-02  0.16232E-02  0.17641E-03  0.12955E-02  0.18875E-02  0.17456E-02
  0.10463E-02  0.29688E-03  0.10803E-02  0.39933E-02  0.75155E-02  0.92315E-02
  0.52936E-02  0.23300E-02  0.71092E-02  0.88265E-02  0.70175E-02  0.36100E-02
  0.87485E-03  0.39722E-03  0.94970E-03  0.15404E-02  0.16374E-02  0.10440E-02
  0.26803E-03  0.18554E-02  0.38565E-02  0.59444E-02  0.77785E-02  0.90429E-02
  0.94308E-02  0.85421E-02  0.60117E-02  0.23402E-02  0.41509E-02  0.84051E-02
  0.11010E-01  0.11523E-01  0.10336E-01  0.82734E-02  0.70777E-02  0.82734E-02
  0.10336E-01  0.11523E-01  0.11010E-01  0.84051E-02  0.41509E-02  0.23402E-02
  0.60117E-02  0.85421E-02  0.94308E-02  0.90429E-02  0.77785E-02  0.59444E-02
  0.38565E-02  0.18554E-02  0.26803E-03  0.10440E-02  0.16374E-02  0.15404E-02
  0.94970E-03  0.39722E-03  0.87485E-03  0.36100E-02  0.70175E-02  0.88265E-02
  0.35880E-02  0.38052E-02  0.69637E-02  0.76726E-02  0.56573E-02  0.25692E-02
  0.47882E-03  0.79320E-03  0.82264E-03  0.10004E-02  0.95810E-03  0.44849E-03
  0.95442E-03  0.25276E-02  0.44661E-02  0.65037E-02  0.83185E-02  0.96122E-02
  0.10095E-01  0.93871E-02  0.71071E-02  0.33750E-02  0.27119E-02  0.69842E-02
  0.10126E-01  0.11434E-01  0.11234E-01  0.10336E-01  0.98256E-02  0.10336E-01
  0.11234E-01  0.11434E-01  0.10126E-01  0.69842E-02  0.27119E-02  0.33750E-02
  0.71071E-02  0.93871E-02  0.10095E-01  0.96122E-02  0.83185E-02  0.65037E-02
  0.44661E-02  0.25276E-02  0.95443E-03  0.44849E-03  0.95810E-03  0.10004E-02
  0.82264E-03  0.79320E-03  0.47882E-03  0.25692E-02  0.56573E-02  0.76726E-02
  0.28688E-02  0.47283E-02  0.63087E-02  0.59213E-02  0.37341E-02  0.11590E-02
  0.10826E-02  0.15770E-02  0.13148E-02  0.94819E-03  0.79869E-03  0.11114E-02
  0.20799E-02  0.35689E-02  0.54127E-02  0.73717E-02  0.91509E-02  0.10475E-01
  0.11080E-01  0.10630E-01  0.87547E-02  0.53606E-02  0.16264E-02  0.45427E-02
  0.82485E-02  0.10529E-01  0.11434E-01  0.11523E-01  0.11451E-01  0.11523E-01
  0.11434E-01  0.10529E-01  0.82485E-02  0.45427E-02  0.16264E-02  0.53606E-02
  0.87547E-02  0.10630E-01  0.11080E-01  0.10475E-01  0.91509E-02  0.73717E-02
  0.54127E-02  0.35689E-02  0.20799E-02  0.11114E-02  0.79869E-03  0.94819E-03
  0.13148E-02  0.15770E-02  0.10826E-02  0.11590E-02  0.37341E-02  0.59213E-02
  0.35964E-02  0.47609E-02  0.49480E-02  0.37138E-02  0.15404E-02  0.11225E-02
  0.24312E-02  0.28191E-02  0.25847E-02  0.22611E-02  0.22118E-02  0.26075E-02
  0.35051E-02  0.48747E-02  0.65947E-02  0.84496E-02  0.10175E-01  0.11518E-01
  0.12244E-01  0.12074E-01  0.10689E-01  0.79089E-02  0.40045E-02  0.15896E-02
  0.51785E-02  0.82485E-02  0.10126E-01  0.11010E-01  0.11250E-01  0.11010E-01
  0.10126E-01  0.82485E-02  0.51785E-02  0.15896E-02  0.40045E-02  0.79089E-02
  0.10689E-01  0.12074E-01  0.12244E-01  0.11518E-01  0.10175E-01  0.84496E-02
  0.65947E-02  0.48747E-02  0.35051E-02  0.26075E-02  0.22118E-02  0.22611E-02
  0.25847E-02  0.28191E-02  0.24312E-02  0.11225E-02  0.15404E-02  0.37138E-02
  0.35230E-02  0.36099E-02  0.28133E-02  0.12034E-02  0.13605E-02  0.31392E-02
  0.42286E-02  0.45303E-02  0.43568E-02  0.40961E-02  0.40338E-02  0.43418E-02
  0.51075E-02  0.63263E-02  0.78912E-02  0.96133E-02  0.11262E-01  0.12607E-01
  0.13431E-01  0.13512E-01  0.12608E-01  0.10536E-01  0.73464E-02  0.35084E-02
  0.15896E-02  0.45427E-02  0.69842E-02  0.84051E-02  0.88603E-02  0.84051E-02
  0.69842E-02  0.45427E-02  0.15896E-02  0.35084E-02  0.73464E-02  0.10536E-01
  0.12608E-01  0.13512E-01  0.13431E-01  0.12607E-01  0.11262E-01  0.96133E-02
  0.78912E-02  0.63263E-02  0.51075E-02  0.43418E-02  0.40338E-02  0.40961E-02
  0.43568E-02  0.45303E-02  0.42286E-02  0.31392E-02  0.13605E-02  0.12034E-02
  0.20670E-02  0.14286E-02  0.73431E-03  0.21439E-02  0.40323E-02  0.55425E-02
  0.63812E-02  0.65904E-02  0.64135E-02  0.61323E-02  0.59875E-02  0.61644E-02
  0.67709E-02  0.78098E-02  0.91861E-02  0.10741E-01  0.12282E-01  0.13598E-01
  0.14485E-01  0.14758E-01  0.14249E-01  0.12822E-01  0.10452E-01  0.73464E-02
  0.40045E-02  0.16264E-02  0.27119E-02  0.41509E-02  0.46663E-02  0.41509E-02
  0.27119E-02  0.16264E-02  0.40045E-02  0.73464E-02  0.10452E-01  0.12822E-01
  0.14249E-01  0.14758E-01  0.14485E-01  0.13598E-01  0.12282E-01  0.10741E-01
  0.91861E-02  0.78098E-02  0.67709E-02  0.61644E-02  0.59875E-02  0.61323E-02
  0.64135E-02  0.65904E-02  0.63812E-02  0.55425E-02  0.40323E-02  0.21439E-02
  0.75562E-03  0.17487E-02  0.33148E-02  0.51230E-02  0.68018E-02  0.80257E-02
  0.86574E-02  0.87641E-02  0.85314E-02  0.81793E-02  0.79261E-02  0.79601E-02
  0.83923E-02  0.92274E-02  0.10385E-01  0.11738E-01  0.13129E-01  0.14370E-01
  0.15268E-01  0.15661E-01  0.15428E-01  0.14488E-01  0.12822E-01  0.10536E-01
  0.79089E-02  0.53606E-02  0.33750E-02  0.23402E-02  0.21106E-02  0.23402E-02
  0.33750E-02  0.53606E-02  0.79089E-02  0.10536E-01  0.12822E-01  0.14488E-01
  0.15428E-01  0.15661E-01  0.15268E-01  0.14370E-01  0.13129E-01  0.11738E-01
  0.10385E-01  0.92274E-02  0.83923E-02  0.79601E-02  0.79261E-02  0.81793E-02
  0.85314E-02  0.87641E-02  0.86574E-02  0.80257E-02  0.68018E-02  0.51230E-02
  0.26702E-02  0.42355E-02  0.59834E-02  0.77312E-02  0.92240E-02  0.10256E-01
  0.10757E-01  0.10793E-01  0.10510E-01  0.10093E-01  0.97431E-02  0.96396E-02
  0.98891E-02  0.10503E-01  0.11421E-01  0.12542E-01  0.13738E-01  0.14846E-01
  0.15693E-01  0.16131E-01  0.16058E-01  0.15428E-01  0.14249E-01  0.12608E-01
  0.10689E-01  0.87547E-02  0.71071E-02  0.60117E-02  0.56308E-02  0.60117E-02
  0.71071E-02  0.87547E-02  0.10689E-01  0.12608E-01  0.14249E-01  0.15428E-01
  0.16058E-01  0.16131E-01  0.15693E-01  0.14846E-01  0.13738E-01  0.12542E-01
  0.11421E-01  0.10503E-01  0.98891E-02  0.96396E-02  0.97431E-02  0.10093E-01
  0.10510E-01  0.10793E-01  0.10757E-01  0.10256E-01  0.92240E-02  0.77312E-02
  0.41827E-02  0.60275E-02  0.78897E-02  0.96185E-02  0.11031E-01  0.11990E-01
  0.12459E-01  0.12493E-01  0.12210E-01  0.11772E-01  0.11360E-01  0.11136E-01
  0.11203E-01  0.11588E-01  0.12257E-01  0.13130E-01  0.14095E-01  0.15014E-01
  0.15740E-01  0.16143E-01  0.16131E-01  0.15661E-01  0.14758E-01  0.13512E-01
  0.12074E-01  0.10630E-01  0.93871E-02  0.85421E-02  0.82422E-02  0.85421E-02
  0.93871E-02  0.10630E-01  0.12074E-01  0.13512E-01  0.14758E-01  0.15661E-01
  0.16131E-01  0.16143E-01  0.15740E-01  0.15014E-01  0.14095E-01  0.13130E-01
  0.12257E-01  0.11588E-01  0.11203E-01  0.11136E-01  0.11360E-01  0.11772E-01
  0.12210E-01  0.12493E-01  0.12459E-01  0.11990E-01  0.11031E-01  0.96185E-02
  0.49163E-02  0.69855E-02  0.89755E-02  0.10755E-01  0.12186E-01  0.13173E-01
  0.13691E-01  0.13788E-01  0.13562E-01  0.13152E-01  0.12716E-01  0.12398E-01
  0.12299E-01  0.12466E-01  0.12890E-01  0.13509E-01  0.14222E-01  0.14909E-01
  0.15451E-01  0.15740E-01  0.15693E-01  0.15268E-01  0.14485E-01  0.13431E-01
  0.12244E-01  0.11080E-01  0.10095E-01  0.94308E-02  0.91959E-02  0.94308E-02
  0.10095E-01  0.11080E-01  0.12244E-01  0.13431E-01  0.14485E-01  0.15268E-01
  0.15693E-01  0.15740E-01  0.15451E-01  0.14909E-01  0.14222E-01  0.13509E-01
  0.12890E-01  0.12466E-01  0.12299E-01  0.12398E-01  0.12716E-01  0.13152E-01
  0.13562E-01  0.13788E-01  0.13691E-01  0.13173E-01  0.12186E-01  0.10755E-01
  0.49922E-02  0.72582E-02  0.93939E-02  0.11276E-01  0.12791E-01  0.13868E-01
  0.14488E-01  0.14689E-01  0.14553E-01  0.14204E-01  0.13777E-01  0.13400E-01
  0.13171E-01  0.13149E-01  0.13346E-01  0.13716E-01  0.14170E-01  0.14600E-01
  0.14909E-01  0.15014E-01  0.14846E-01  0.14370E-01  0.13598E-01  0.12607E-01
  0.11518E-01  0.10475E-01  0.96122E-02  0.90429E-02  0.88439E-02  0.90429E-02
  0.96122E-02  0.10475E-01  0.11518E-01  0.12607E-01  0.13598E-01  0.14370E-01
  0.14846E-01  0.15014E-01  0.14909E-01  0.14600E-01  0.14170E-01  0.13716E-01
  0.13346E-01  0.13149E-01  0.13171E-01  0.13400E-01  0.13777E-01  0.14204E-01
  0.14553E-01  0.14689E-01  0.14488E-01  0.13868E-01  0.12791E-01  0.11276E-01
  0.45576E-02  0.69988E-02  0.92888E-02  0.11304E-01  0.12944E-01  0.14150E-01
  0.14905E-01  0.15236E-01  0.15214E-01  0.14946E-01  0.14555E-01  0.14156E-01
  0.13841E-01  0.13673E-01  0.13673E-01  0.13808E-01  0.14004E-01  0.14170E-01
  0.14222E-01  0.14095E-01  0.13738E-01  0.13129E-01  0.12282E-01  0.11262E-01
  0.10175E-01  0.91509E-02  0.83185E-02  0.77785E-02  0.75918E-02  0.77785E-02
  0.83185E-02  0.91509E-02  0.10175E-01  0.11262E-01  0.12282E-01  0.13129E-01
  0.13738E-01  0.14095E-01  0.14222E-01  0.14170E-01  0.14004E-01  0.13808E-01
  0.13673E-01  0.13673E-01  0.13841E-01  0.14156E-01  0.14555E-01  0.14946E-01
  0.15214E-01  0.15236E-01  0.14905E-01  0.14150E-01  0.12944E-01  0.11304E-01
  0.37340E-02  0.63242E-02  0.87640E-02  0.10924E-01  0.12711E-01  0.14069E-01