       #
       # Generated by the Wannier90 code http://www.wannier.org
       # On 10May2024 at 21:04:43 
       #
CRYSTAL
PRIMVEC
   2.7281430   0.0000000   0.0000000
   0.0000000   2.7281430   0.0000000
   0.0000000   0.0000000   3.7789840
CONVVEC
   2.7281430   0.0000000   0.0000000
   0.0000000   2.7281430   0.0000000
   0.0000000   0.0000000   3.7789840
PRIMCOORD
     2  1
Fe      0.0000000   0.0000000   0.0000000
Pt      1.3640715   1.3640715   1.8894920


BEGIN_BLOCK_DATAGRID_3D
3D_field
BEGIN_DATAGRID_3D_UNKNOWN
    54    54    80
   -2.829185   -2.829185   -3.873459
   5.3552437   0.0000000   0.0000000
   0.0000000   5.3552437   0.0000000
   0.0000000   0.0000000   7.4634934
  0.98760E-03  0.11278E-02  0.18162E-02  0.22107E-02  0.20450E-02  0.14976E-02
  0.89794E-03  0.47400E-03  0.27600E-03  0.23430E-03  0.25061E-03  0.27720E-03
  0.29795E-03  0.31040E-03  0.32067E-03  0.33587E-03  0.35750E-03  0.37770E-03
  0.36619E-03  0.27653E-03  0.22156E-03  0.51280E-03  0.85674E-03  0.10495E-02
  0.10700E-02  0.10248E-02  0.93933E-03  0.74898E-03  0.60329E-03  0.74898E-03
  0.93933E-03  0.10248E-02  0.10700E-02  0.10495E-02  0.85674E-03  0.51280E-03
  0.22156E-03  0.27653E-03  0.36619E-03  0.37770E-03  0.35750E-03  0.33587E-03
  0.32067E-03  0.31040E-03  0.29795E-03  0.27720E-03  0.25061E-03  0.23430E-03
  0.27600E-03  0.47400E-03  0.89794E-03  0.14976E-02  0.20450E-02  0.22107E-02
  0.11278E-02  0.36049E-03  0.11005E-02  0.17596E-02  0.18111E-02  0.14014E-02
  0.86003E-03  0.44069E-03  0.23352E-03  0.21304E-03  0.26648E-03  0.32766E-03
  0.38188E-03  0.43386E-03  0.49205E-03  0.55845E-03  0.62972E-03  0.69186E-03
  0.70176E-03  0.59017E-03  0.32069E-03  0.21656E-03  0.63492E-03  0.10438E-02
  0.14127E-02  0.17559E-02  0.20241E-02  0.21707E-02  0.22118E-02  0.21707E-02
  0.20241E-02  0.17559E-02  0.14127E-02  0.10438E-02  0.63492E-03  0.21656E-03
  0.32069E-03  0.59017E-03  0.70176E-03  0.69186E-03  0.62972E-03  0.55845E-03
  0.49205E-03  0.43386E-03  0.38188E-03  0.32766E-03  0.26648E-03  0.21304E-03
  0.23352E-03  0.44069E-03  0.86003E-03  0.14014E-02  0.18111E-02  0.17596E-02
  0.18162E-02  0.11005E-02  0.68712E-03  0.11168E-02  0.12763E-02  0.10376E-02
  0.64296E-03  0.31918E-03  0.19412E-03  0.25491E-03  0.35507E-03  0.45141E-03
  0.54095E-03  0.63167E-03  0.73017E-03  0.83705E-03  0.94947E-03  0.10520E-02
  0.10981E-02  0.10155E-02  0.75327E-03  0.33246E-03  0.24342E-03  0.83931E-03
  0.15649E-02  0.24249E-02  0.33165E-02  0.40163E-02  0.42845E-02  0.40163E-02
  0.33165E-02  0.24249E-02  0.15649E-02  0.83931E-03  0.24342E-03  0.33246E-03
  0.75327E-03  0.10155E-02  0.10981E-02  0.10520E-02  0.94947E-03  0.83705E-03
  0.73017E-03  0.63167E-03  0.54095E-03  0.45141E-03  0.35507E-03  0.25491E-03
  0.19412E-03  0.31918E-03  0.64296E-03  0.10376E-02  0.12763E-02  0.11168E-02
  0.22107E-02  0.17596E-02  0.11168E-02  0.78605E-03  0.73276E-03  0.58791E-03
  0.36082E-03  0.19994E-03  0.22093E-03  0.33181E-03  0.45321E-03  0.57023E-03
  0.68561E-03  0.80848E-03  0.94338E-03  0.10893E-02  0.12429E-02  0.13890E-02
  0.14832E-02  0.14574E-02  0.12576E-02  0.87805E-03  0.34462E-03  0.36676E-03
  0.12833E-02  0.24306E-02  0.36536E-02  0.46265E-02  0.50012E-02  0.46265E-02
  0.36536E-02  0.24306E-02  0.12833E-02  0.36676E-03  0.34462E-03  0.87805E-03
  0.12576E-02  0.14574E-02  0.14832E-02  0.13890E-02  0.12429E-02  0.10893E-02
  0.94338E-03  0.80848E-03  0.68561E-03  0.57023E-03  0.45321E-03  0.33181E-03
  0.22093E-03  0.19994E-03  0.36082E-03  0.58791E-03  0.73276E-03  0.78605E-03
  0.20450E-02  0.18111E-02  0.12763E-02  0.73276E-03  0.37767E-03  0.21068E-03
  0.15980E-03  0.19455E-03  0.27902E-03  0.39375E-03  0.52078E-03  0.64946E-03
  0.78395E-03  0.93336E-03  0.11002E-02  0.12815E-02  0.14727E-02  0.16596E-02
  0.18042E-02  0.18477E-02  0.17373E-02  0.14517E-02  0.99247E-03  0.34765E-03
  0.55874E-03  0.16718E-02  0.28622E-02  0.38084E-02  0.41725E-02  0.38084E-02
  0.28622E-02  0.16718E-02  0.55874E-03  0.34765E-03  0.99247E-03  0.14517E-02
  0.17373E-02  0.18477E-02  0.18042E-02  0.16596E-02  0.14727E-02  0.12815E-02
  0.11002E-02  0.93336E-03  0.78395E-03  0.64946E-03  0.52078E-03  0.39375E-03
  0.27902E-03  0.19455E-03  0.15980E-03  0.21067E-03  0.37767E-03  0.73276E-03
  0.14976E-02  0.14014E-02  0.10376E-02  0.58791E-03  0.21067E-03  0.56349E-04
  0.17594E-03  0.24391E-03  0.31581E-03  0.42109E-03  0.54761E-03  0.68339E-03
  0.83225E-03  0.10018E-02  0.11924E-02  0.13997E-02  0.16186E-02  0.18364E-02
  0.20232E-02  0.21320E-02  0.21163E-02  0.19472E-02  0.16156E-02  0.11123E-02
  0.42884E-03  0.47825E-03  0.13824E-02  0.21040E-02  0.23814E-02  0.21040E-02
  0.13824E-02  0.47826E-03  0.42884E-03  0.11123E-02  0.16156E-02  0.19472E-02
  0.21163E-02  0.21320E-02  0.20232E-02  0.18364E-02  0.16186E-02  0.13997E-02
  0.11924E-02  0.10018E-02  0.83225E-03  0.68339E-03  0.54761E-03  0.42109E-03
  0.31581E-03  0.24391E-03  0.17594E-03  0.56349E-04  0.21068E-03  0.58791E-03
  0.89794E-03  0.86003E-03  0.64296E-03  0.36082E-03  0.15980E-03  0.17594E-03
  0.23562E-03  0.26992E-03  0.32077E-03  0.41376E-03  0.53637E-03  0.67609E-03
  0.83483E-03  0.10166E-02  0.12195E-02  0.14391E-02  0.16712E-02  0.19052E-02
  0.21181E-02  0.22756E-02  0.23409E-02  0.22850E-02  0.20940E-02  0.17667E-02
  0.13101E-02  0.75437E-03  0.20927E-03  0.31848E-03  0.48153E-03  0.31848E-03
  0.20927E-03  0.75437E-03  0.13101E-02  0.17667E-02  0.20940E-02  0.22850E-02
  0.23409E-02  0.22756E-02  0.21181E-02  0.19052E-02  0.16712E-02  0.14391E-02
  0.12195E-02  0.10166E-02  0.83483E-03  0.67609E-03  0.53637E-03  0.41376E-03
  0.32077E-03  0.26992E-03  0.23562E-03  0.17594E-03  0.15980E-03  0.36082E-03
  0.47400E-03  0.44069E-03  0.31918E-03  0.19994E-03  0.19455E-03  0.24391E-03
  0.26992E-03  0.27767E-03  0.30446E-03  0.37810E-03  0.49094E-03  0.62982E-03
  0.79245E-03  0.97738E-03  0.11798E-02  0.13965E-02  0.16258E-02  0.18595E-02
  0.20796E-02  0.22627E-02  0.23837E-02  0.24185E-02  0.23508E-02  0.21809E-02
  0.19256E-02  0.16165E-02  0.13052E-02  0.10669E-02  0.97666E-03  0.10669E-02
  0.13052E-02  0.16165E-02  0.19256E-02  0.21809E-02  0.23508E-02  0.24185E-02
  0.23837E-02  0.22627E-02  0.20796E-02  0.18595E-02  0.16258E-02  0.13965E-02
  0.11798E-02  0.97738E-03  0.79245E-03  0.62982E-03  0.49094E-03  0.37810E-03
  0.30446E-03  0.27767E-03  0.26992E-03  0.24391E-03  0.19455E-03  0.19994E-03
  0.27600E-03  0.23352E-03  0.19412E-03  0.22093E-03  0.27902E-03  0.31581E-03
  0.32077E-03  0.30446E-03  0.29596E-03  0.33287E-03  0.42292E-03  0.55165E-03
  0.70923E-03  0.88709E-03  0.10768E-02  0.12766E-02  0.14881E-02  0.17058E-02
  0.19146E-02  0.20990E-02  0.22455E-02  0.23378E-02  0.23594E-02  0.23058E-02
  0.21920E-02  0.20461E-02  0.19013E-02  0.17929E-02  0.17524E-02  0.17929E-02
  0.19013E-02  0.20461E-02  0.21920E-02  0.23058E-02  0.23594E-02  0.23378E-02
  0.22455E-02  0.20990E-02  0.19146E-02  0.17058E-02  0.14881E-02  0.12766E-02
  0.10768E-02  0.88709E-03  0.70923E-03  0.55165E-03  0.42292E-03  0.33287E-03
  0.29596E-03  0.30446E-03  0.32077E-03  0.31581E-03  0.27902E-03  0.22094E-03
  0.23430E-03  0.21304E-03  0.25491E-03  0.33181E-03  0.39375E-03  0.42109E-03
  0.41376E-03  0.37810E-03  0.33287E-03  0.31664E-03  0.36150E-03  0.46315E-03
  0.60291E-03  0.76286E-03  0.92959E-03  0.11013E-02  0.12827E-02  0.14703E-02
  0.16512E-02  0.18143E-02  0.19555E-02  0.20675E-02  0.21364E-02  0.21532E-02
  0.21255E-02  0.20735E-02  0.20186E-02  0.19777E-02  0.19626E-02  0.19777E-02
  0.20186E-02  0.20735E-02  0.21255E-02  0.21532E-02  0.21364E-02  0.20675E-02
  0.19555E-02  0.18143E-02  0.16512E-02  0.14703E-02  0.12827E-02  0.11013E-02
  0.92959E-03  0.76286E-03  0.60291E-03  0.46315E-03  0.36150E-03  0.31664E-03
  0.33287E-03  0.37810E-03  0.41376E-03  0.42109E-03  0.39375E-03  0.33181E-03
  0.25061E-03  0.26648E-03  0.35507E-03  0.45321E-03  0.52078E-03  0.54761E-03
  0.53637E-03  0.49094E-03  0.42292E-03  0.36150E-03  0.34570E-03  0.39643E-03
  0.50115E-03  0.63253E-03  0.76904E-03  0.90569E-03  0.10476E-02  0.11933E-02
  0.13316E-02  0.14546E-02  0.15639E-02  0.16597E-02  0.17333E-02  0.17756E-02
  0.17886E-02  0.17842E-02  0.17741E-02  0.17654E-02  0.17619E-02  0.17654E-02
  0.17741E-02  0.17842E-02  0.17886E-02  0.17756E-02  0.17333E-02  0.16597E-02
  0.15639E-02  0.14546E-02  0.13316E-02  0.11933E-02  0.10476E-02  0.90569E-03
  0.76904E-03  0.63253E-03  0.50115E-03  0.39643E-03  0.34570E-03  0.36150E-03
  0.42292E-03  0.49094E-03  0.53637E-03  0.54761E-03  0.52078E-03  0.45321E-03
  0.27720E-03  0.32766E-03  0.45141E-03  0.57023E-03  0.64946E-03  0.68339E-03
  0.67609E-03  0.62982E-03  0.55165E-03  0.46315E-03  0.39643E-03  0.38272E-03
  0.43301E-03  0.52445E-03  0.62600E-03  0.72445E-03  0.82130E-03  0.91580E-03
  0.99985E-03  0.10689E-02  0.11279E-02  0.11814E-02  0.12261E-02  0.12567E-02
  0.12742E-02  0.12846E-02  0.12913E-02  0.12951E-02  0.12962E-02  0.12951E-02
  0.12913E-02  0.12846E-02  0.12742E-02  0.12567E-02  0.12261E-02  0.11814E-02
  0.11279E-02  0.10689E-02  0.99985E-03  0.91580E-03  0.82130E-03  0.72445E-03
  0.62600E-03  0.52445E-03  0.43301E-03  0.38272E-03  0.39643E-03  0.46315E-03
  0.55165E-03  0.62982E-03  0.67609E-03  0.68339E-03  0.64946E-03  0.57023E-03
  0.29795E-03  0.38188E-03  0.54095E-03  0.68561E-03  0.78395E-03  0.83225E-03
  0.83483E-03  0.79245E-03  0.70923E-03  0.60291E-03  0.50115E-03  0.43301E-03
  0.42168E-03  0.46304E-03  0.52601E-03  0.58671E-03  0.63834E-03  0.67860E-03
  0.70351E-03  0.71352E-03  0.71608E-03  0.71785E-03  0.71963E-03  0.72106E-03
  0.72479E-03  0.73258E-03  0.74174E-03  0.74824E-03  0.75042E-03  0.74824E-03
  0.74174E-03  0.73258E-03  0.72479E-03  0.72106E-03  0.71963E-03  0.71785E-03
  0.71608E-03  0.71352E-03  0.70351E-03  0.67860E-03  0.63834E-03  0.58671E-03
  0.52601E-03  0.46304E-03  0.42168E-03  0.43301E-03  0.50115E-03  0.60291E-03
  0.70923E-03  0.79245E-03  0.83483E-03  0.83225E-03  0.78395E-03  0.68561E-03
  0.31040E-03  0.43386E-03  0.63167E-03  0.80848E-03  0.93336E-03  0.10018E-02
  0.10166E-02  0.97738E-03  0.88709E-03  0.76286E-03  0.63253E-03  0.52445E-03
  0.46304E-03  0.45621E-03  0.48228E-03  0.51191E-03  0.52929E-03  0.52912E-03
  0.51205E-03  0.48598E-03  0.46328E-03  0.45343E-03  0.46061E-03  0.48461E-03
  0.51957E-03  0.55622E-03  0.58717E-03  0.60795E-03  0.61536E-03  0.60795E-03
  0.58717E-03  0.55622E-03  0.51957E-03  0.48461E-03  0.46061E-03  0.45343E-03
  0.46328E-03  0.48598E-03  0.51205E-03  0.52912E-03  0.52929E-03  0.51191E-03
  0.48228E-03  0.45621E-03  0.46304E-03  0.52445E-03  0.63253E-03  0.76286E-03
  0.88709E-03  0.97738E-03  0.10166E-02  0.10018E-02  0.93336E-03  0.80848E-03
  0.32067E-03  0.49205E-03  0.73017E-03  0.94338E-03  0.11002E-02  0.11924E-02
  0.12195E-02  0.11798E-02  0.10768E-02  0.92959E-03  0.76904E-03  0.62600E-03
  0.52601E-03  0.48228E-03  0.48125E-03  0.49292E-03  0.49658E-03  0.48780E-03
  0.47674E-03  0.48365E-03  0.52397E-03  0.59703E-03  0.69240E-03  0.79625E-03
  0.89349E-03  0.97312E-03  0.10314E-02  0.10677E-02  0.10803E-02  0.10677E-02
  0.10314E-02  0.97312E-03  0.89349E-03  0.79625E-03  0.69240E-03  0.59703E-03
  0.52397E-03  0.48365E-03  0.47674E-03  0.48780E-03  0.49658E-03  0.49292E-03
  0.48125E-03  0.48228E-03  0.52601E-03  0.62600E-03  0.76904E-03  0.92959E-03
  0.10768E-02  0.11798E-02  0.12195E-02  0.11924E-02  0.11002E-02  0.94338E-03
  0.33587E-03  0.55845E-03  0.83705E-03  0.10893E-02  0.12815E-02  0.13997E-02
  0.14391E-02  0.13965E-02  0.12766E-02  0.11013E-02  0.90569E-03  0.72445E-03
  0.58671E-03  0.51191E-03  0.49292E-03  0.49773E-03  0.50134E-03  0.50230E-03
  0.52087E-03  0.58391E-03  0.69858E-03  0.84940E-03  0.10159E-02  0.11797E-02
  0.13242E-02  0.14383E-02  0.15186E-02  0.15660E-02  0.15818E-02  0.15660E-02
  0.15186E-02  0.14383E-02  0.13242E-02  0.11797E-02  0.10159E-02  0.84940E-03
  0.69858E-03  0.58391E-03  0.52087E-03  0.50230E-03  0.50134E-03  0.49773E-03
  0.49292E-03  0.51191E-03  0.58671E-03  0.72445E-03  0.90569E-03  0.11013E-02
  0.12766E-02  0.13965E-02  0.14391E-02  0.13997E-02  0.12815E-02  0.10893E-02
  0.35750E-03  0.62972E-03  0.94947E-03  0.12429E-02  0.14727E-02  0.16186E-02
  0.16712E-02  0.16258E-02  0.14881E-02  0.12827E-02  0.10476E-02  0.82130E-03
  0.63834E-03  0.52929E-03  0.49658E-03  0.50134E-03  0.50792E-03  0.51424E-03
  0.54831E-03  0.64498E-03  0.80960E-03  0.10169E-02  0.12369E-02  0.14465E-02
  0.16282E-02  0.17697E-02  0.18663E-02  0.19206E-02  0.19378E-02  0.19206E-02
  0.18663E-02  0.17697E-02  0.16282E-02  0.14465E-02  0.12369E-02  0.10169E-02
  0.80960E-03  0.64498E-03  0.54831E-03  0.51424E-03  0.50792E-03  0.50134E-03
  0.49658E-03  0.52929E-03  0.63834E-03  0.82130E-03  0.10476E-02  0.12827E-02
  0.14881E-02  0.16258E-02  0.16712E-02  0.16186E-02  0.14727E-02  0.12429E-02
  0.37770E-03  0.69185E-03  0.10520E-02  0.13890E-02  0.16596E-02  0.18364E-02
  0.19052E-02  0.18595E-02  0.17058E-02  0.14703E-02  0.11933E-02  0.91580E-03
  0.67860E-03  0.52912E-03  0.48780E-03  0.50230E-03  0.51424E-03  0.51455E-03
  0.53697E-03  0.63328E-03  0.81875E-03  0.10593E-02  0.13127E-02  0.15497E-02
  0.17523E-02  0.19076E-02  0.20096E-02  0.20632E-02  0.20792E-02  0.20632E-02
  0.20096E-02  0.19076E-02  0.17523E-02  0.15497E-02  0.13127E-02  0.10593E-02
  0.81875E-03  0.63328E-03  0.53697E-03  0.51455E-03  0.51424E-03  0.50230E-03
  0.48780E-03  0.52912E-03  0.67860E-03  0.91580E-03  0.11933E-02  0.14703E-02
  0.17058E-02  0.18595E-02  0.19052E-02  0.18364E-02  0.16596E-02  0.13890E-02
  0.36619E-03  0.70176E-03  0.10981E-02  0.14832E-02  0.18042E-02  0.20232E-02
  0.21181E-02  0.20796E-02  0.19146E-02  0.16512E-02  0.13316E-02  0.99985E-03
  0.70351E-03  0.51205E-03  0.47674E-03  0.52087E-03  0.54831E-03  0.53697E-03
  0.51832E-03  0.56628E-03  0.73178E-03  0.97736E-03  0.12409E-02  0.14826E-02
  0.16818E-02  0.18259E-02  0.19112E-02  0.19486E-02  0.19578E-02  0.19486E-02
  0.19112E-02  0.18259E-02  0.16818E-02  0.14826E-02  0.12409E-02  0.97736E-03
  0.73178E-03  0.56628E-03  0.51832E-03  0.53697E-03  0.54831E-03  0.52087E-03
  0.47674E-03  0.51205E-03  0.70351E-03  0.99985E-03  0.13316E-02  0.16512E-02
  0.19146E-02  0.20796E-02  0.21181E-02  0.20232E-02  0.18042E-02  0.14832E-02
  0.27653E-03  0.59017E-03  0.10155E-02  0.14574E-02  0.18477E-02  0.21320E-02
  0.22756E-02  0.22627E-02  0.20990E-02  0.18143E-02  0.14546E-02  0.10689E-02
  0.71352E-03  0.48598E-03  0.48365E-03  0.58391E-03  0.64498E-03  0.63328E-03
  0.56628E-03  0.51292E-03  0.58656E-03  0.79391E-03  0.10411E-02  0.12619E-02
  0.14256E-02  0.15201E-02  0.15511E-02  0.15454E-02  0.15380E-02  0.15454E-02
  0.15511E-02  0.15201E-02  0.14256E-02  0.12619E-02  0.10411E-02  0.79391E-03
  0.58656E-03  0.51292E-03  0.56628E-03  0.63328E-03  0.64498E-03  0.58391E-03
  0.48365E-03  0.48598E-03  0.71352E-03  0.10689E-02  0.14546E-02  0.18143E-02
  0.20990E-02  0.22627E-02  0.22756E-02  0.21320E-02  0.18477E-02  0.14574E-02
  0.22155E-03  0.32069E-03  0.75327E-03  0.12576E-02  0.17373E-02  0.21163E-02
  0.23409E-02  0.23837E-02  0.22455E-02  0.19555E-02  0.15639E-02  0.11279E-02
  0.71608E-03  0.46328E-03  0.52397E-03  0.69858E-03  0.80960E-03  0.81875E-03
  0.73178E-03  0.58656E-03  0.48843E-03  0.56710E-03  0.75643E-03  0.92703E-03
  0.10177E-02  0.10154E-02  0.94601E-03  0.86583E-03  0.83153E-03  0.86583E-03
  0.94601E-03  0.10154E-02  0.10177E-02  0.92703E-03  0.75643E-03  0.56710E-03
  0.48843E-03  0.58656E-03  0.73178E-03  0.81875E-03  0.80960E-03  0.69858E-03
  0.52397E-03  0.46328E-03  0.71608E-03  0.11279E-02  0.15639E-02  0.19555E-02
  0.22455E-02  0.23837E-02  0.23409E-02  0.21163E-02  0.17373E-02  0.12576E-02
  0.51280E-03  0.21656E-03  0.33246E-03  0.87805E-03  0.14517E-02  0.19472E-02
  0.22850E-02  0.24185E-02  0.23378E-02  0.20675E-02  0.16597E-02  0.11814E-02
  0.71785E-03  0.45343E-03  0.59703E-03  0.84940E-03  0.10169E-02  0.10593E-02
  0.97737E-03  0.79391E-03  0.56710E-03  0.42461E-03  0.47021E-03  0.55642E-03
  0.54473E-03  0.42459E-03  0.31385E-03  0.35626E-03  0.40719E-03  0.35626E-03
  0.31385E-03  0.42459E-03  0.54473E-03  0.55642E-03  0.47021E-03  0.42461E-03
  0.56710E-03  0.79391E-03  0.97736E-03  0.10593E-02  0.10169E-02  0.84940E-03
  0.59703E-03  0.45343E-03  0.71785E-03  0.11814E-02  0.16597E-02  0.20675E-02
  0.23378E-02  0.24185E-02  0.22850E-02  0.19472E-02  0.14517E-02  0.87805E-03
  0.85674E-03  0.63492E-03  0.24342E-03  0.34462E-03  0.99247E-03  0.16156E-02
  0.20940E-02  0.23508E-02  0.23594E-02  0.21364E-02  0.17333E-02  0.12261E-02
  0.71963E-03  0.46061E-03  0.69240E-03  0.10159E-02  0.12369E-02  0.13127E-02
  0.12409E-02  0.10411E-02  0.75643E-03  0.47021E-03  0.31485E-03  0.28453E-03
  0.22139E-03  0.38062E-03  0.78683E-03  0.11538E-02  0.12992E-02  0.11538E-02
  0.78683E-03  0.38062E-03  0.22139E-03  0.28453E-03  0.31485E-03  0.47021E-03
  0.75643E-03  0.10411E-02  0.12409E-02  0.13127E-02  0.12369E-02  0.10159E-02
  0.69240E-03  0.46061E-03  0.71963E-03  0.12261E-02  0.17333E-02  0.21364E-02
  0.23594E-02  0.23508E-02  0.20940E-02  0.16156E-02  0.99247E-03  0.34462E-03
  0.10495E-02  0.10438E-02  0.83931E-03  0.36676E-03  0.34765E-03  0.11123E-02
  0.17667E-02  0.21809E-02  0.23058E-02  0.21532E-02  0.17756E-02  0.12567E-02
  0.72106E-03  0.48461E-03  0.79625E-03  0.11797E-02  0.14465E-02  0.15497E-02
  0.14826E-02  0.12619E-02  0.92703E-03  0.55642E-03  0.28453E-03  0.18452E-03
  0.25986E-03  0.73198E-03  0.13689E-02  0.19036E-02  0.21116E-02  0.19036E-02
  0.13689E-02  0.73198E-03  0.25986E-03  0.18453E-03  0.28453E-03  0.55642E-03
  0.92703E-03  0.12619E-02  0.14826E-02  0.15497E-02  0.14465E-02  0.11797E-02
  0.79625E-03  0.48461E-03  0.72106E-03  0.12567E-02  0.17756E-02  0.21532E-02
  0.23058E-02  0.21809E-02  0.17667E-02  0.11123E-02  0.34765E-03  0.36676E-03
  0.10700E-02  0.14127E-02  0.15649E-02  0.12833E-02  0.55874E-03  0.42884E-03
  0.13101E-02  0.19256E-02  0.21920E-02  0.21255E-02  0.17886E-02  0.12742E-02
  0.72479E-03  0.51957E-03  0.89349E-03  0.13242E-02  0.16282E-02  0.17523E-02
  0.16818E-02  0.14256E-02  0.10177E-02  0.54473E-03  0.22139E-03  0.25986E-03
  0.38136E-03  0.90339E-03  0.16638E-02  0.23077E-02  0.25577E-02  0.23077E-02
  0.16638E-02  0.90339E-03  0.38136E-03  0.25986E-03  0.22139E-03  0.54473E-03
  0.10177E-02  0.14256E-02  0.16818E-02  0.17523E-02  0.16282E-02  0.13242E-02
  0.89349E-03  0.51957E-03  0.72479E-03  0.12742E-02  0.17886E-02  0.21255E-02
  0.21920E-02  0.19256E-02  0.13101E-02  0.42884E-03  0.55874E-03  0.12833E-02
  0.10248E-02  0.17559E-02  0.24249E-02  0.24306E-02  0.16718E-02  0.47826E-03
  0.75437E-03  0.16165E-02  0.20461E-02  0.20735E-02  0.17842E-02  0.12846E-02
  0.73258E-03  0.55622E-03  0.97312E-03  0.14383E-02  0.17697E-02  0.19076E-02
  0.18259E-02  0.15201E-02  0.10154E-02  0.42459E-03  0.38062E-03  0.73198E-03
  0.90339E-03  0.11946E-02  0.17846E-02  0.23505E-02  0.25762E-02  0.23505E-02
  0.17846E-02  0.11946E-02  0.90339E-03  0.73198E-03  0.38062E-03  0.42459E-03
  0.10154E-02  0.15201E-02  0.18259E-02  0.19076E-02  0.17697E-02  0.14383E-02
  0.97312E-03  0.55622E-03  0.73258E-03  0.12846E-02  0.17842E-02  0.20735E-02
  0.20461E-02  0.16165E-02  0.75437E-03  0.47826E-03  0.16718E-02  0.24306E-02
  0.93933E-03  0.20241E-02  0.33165E-02  0.36536E-02  0.28622E-02  0.13824E-02
  0.20927E-03  0.13052E-02  0.19013E-02  0.20186E-02  0.17741E-02  0.12913E-02
  0.74174E-03  0.58717E-03  0.10314E-02  0.15186E-02  0.18663E-02  0.20096E-02
  0.19112E-02  0.15511E-02  0.94601E-03  0.31385E-03  0.78683E-03  0.13689E-02
  0.16638E-02  0.17846E-02  0.19252E-02  0.20794E-02  0.21430E-02  0.20794E-02
  0.19252E-02  0.17846E-02  0.16638E-02  0.13689E-02  0.78683E-03  0.31385E-03
  0.94601E-03  0.15511E-02  0.19112E-02  0.20096E-02  0.18663E-02  0.15186E-02
  0.10314E-02  0.58717E-03  0.74174E-03  0.12913E-02  0.17741E-02  0.20186E-02
  0.19013E-02  0.13052E-02  0.20927E-03  0.13824E-02  0.28622E-02  0.36536E-02
  0.74898E-03  0.21707E-02  0.40163E-02  0.46265E-02  0.38084E-02  0.21040E-02
  0.31848E-03  0.10669E-02  0.17929E-02  0.19777E-02  0.17654E-02  0.12951E-02
  0.74824E-03  0.60795E-03  0.10677E-02  0.15660E-02  0.19206E-02  0.20632E-02
  0.19486E-02  0.15454E-02  0.86583E-03  0.35626E-03  0.11538E-02  0.19036E-02
  0.23077E-02  0.23505E-02  0.20794E-02  0.15739E-02  0.12392E-02  0.15739E-02
  0.20794E-02  0.23505E-02  0.23077E-02  0.19036E-02  0.11538E-02  0.35626E-03
  0.86583E-03  0.15454E-02  0.19486E-02  0.20632E-02  0.19206E-02  0.15660E-02
  0.10677E-02  0.60795E-03  0.74824E-03  0.12951E-02  0.17654E-02  0.19777E-02
  0.17929E-02  0.10669E-02  0.31848E-03  0.21040E-02  0.38084E-02  0.46265E-02
  0.60329E-03  0.22118E-02  0.42845E-02  0.50012E-02  0.41725E-02  0.23814E-02
  0.48153E-03  0.97666E-03  0.17524E-02  0.19626E-02  0.17619E-02  0.12962E-02
  0.75042E-03  0.61536E-03  0.10803E-02  0.15818E-02  0.19378E-02  0.20792E-02
  0.19578E-02  0.15380E-02  0.83153E-03  0.40719E-03  0.12992E-02  0.21116E-02
  0.25577E-02  0.25762E-02  0.21430E-02  0.12392E-02  0.17084E-08  0.12392E-02
  0.21430E-02  0.25762E-02  0.25577E-02  0.21116E-02  0.12992E-02  0.40719E-03
  0.83153E-03  0.15380E-02  0.19578E-02  0.20792E-02  0.19378E-02  0.15818E-02
  0.10803E-02  0.61536E-03  0.75042E-03  0.12962E-02  0.17619E-02  0.19626E-02
  0.17524E-02  0.97666E-03  0.48153E-03  0.23814E-02  0.41725E-02  0.50012E-02
  0.74898E-03  0.21707E-02  0.40163E-02  0.46265E-02  0.38084E-02  0.21040E-02
  0.31848E-03  0.10669E-02  0.17929E-02  0.19777E-02  0.17654E-02  0.12951E-02
  0.74824E-03  0.60795E-03  0.10677E-02  0.15660E-02  0.19206E-02  0.20632E-02
  0.19486E-02  0.15454E-02  0.86583E-03  0.35626E-03  0.11538E-02  0.19036E-02
  0.23077E-02  0.23505E-02  0.20794E-02  0.15739E-02  0.12392E-02  0.15739E-02
  0.20794E-02  0.23505E-02  0.23077E-02  0.19036E-02  0.11538E-02  0.35626E-03
  0.86583E-03  0.15454E-02  0.19486E-02  0.20632E-02  0.19206E-02  0.15660E-02
  0.10677E-02  0.60795E-03  0.74824E-03  0.12951E-02  0.17654E-02  0.19777E-02
  0.17929E-02  0.10669E-02  0.31848E-03  0.21040E-02  0.38084E-02  0.46265E-02
  0.93933E-03  0.20241E-02  0.33165E-02  0.36536E-02  0.28622E-02  0.13824E-02
  0.20927E-03  0.13052E-02  0.19013E-02  0.20186E-02  0.17741E-02  0.12913E-02
  0.74174E-03  0.58717E-03  0.10314E-02  0.15186E-02  0.18663E-02  0.20096E-02
  0.19112E-02  0.15511E-02  0.94601E-03  0.31385E-03  0.78683E-03  0.13689E-02
  0.16638E-02  0.17846E-02  0.19252E-02  0.20794E-02  0.21430E-02  0.20794E-02
  0.19252E-02  0.17846E-02  0.16638E-02  0.13689E-02  0.78683E-03  0.31385E-03
  0.94601E-03  0.15511E-02  0.19112E-02  0.20096E-02  0.18663E-02  0.15186E-02
  0.10314E-02  0.58717E-03  0.74174E-03  0.12913E-02  0.17741E-02  0.20186E-02
  0.19013E-02  0.13052E-02  0.20927E-03  0.13824E-02  0.28622E-02  0.36536E-02
  0.10248E-02  0.17559E-02  0.24249E-02  0.24306E-02  0.16718E-02  0.47826E-03
  0.75437E-03  0.16165E-02  0.20461E-02  0.20735E-02  0.17842E-02  0.12846E-02
  0.73258E-03  0.55622E-03  0.97312E-03  0.14383E-02  0.17697E-02  0.19076E-02
  0.18259E-02  0.15201E-02  0.10154E-02  0.42459E-03  0.38062E-03  0.73198E-03
  0.90339E-03  0.11946E-02  0.17846E-02  0.23505E-02  0.25762E-02  0.23505E-02
  0.17846E-02  0.11946E-02  0.90339E-03  0.73198E-03  0.38062E-03  0.42459E-03
  0.10154E-02  0.15201E-02  0.18259E-02  0.19076E-02  0.17697E-02  0.14383E-02
  0.97312E-03  0.55622E-03  0.73258E-03  0.12846E-02  0.17842E-02  0.20735E-02
  0.20461E-02  0.16165E-02  0.75437E-03  0.47826E-03  0.16718E-02  0.24306E-02
  0.10700E-02  0.14127E-02  0.15649E-02  0.12833E-02  0.55874E-03  0.42884E-03
  0.13101E-02  0.19256E-02  0.21920E-02  0.21255E-02  0.17886E-02  0.12742E-02
  0.72479E-03  0.51957E-03  0.89349E-03  0.13242E-02  0.16282E-02  0.17523E-02
  0.16818E-02  0.14256E-02  0.10177E-02  0.54473E-03  0.22139E-03  0.25986E-03
  0.38136E-03  0.90339E-03  0.16638E-02  0.23077E-02  0.25577E-02  0.23077E-02
  0.16638E-02  0.90339E-03  0.38136E-03  0.25986E-03  0.22139E-03  0.54473E-03
  0.10177E-02  0.14256E-02  0.16818E-02  0.17523E-02  0.16282E-02  0.13242E-02
  0.89349E-03  0.51957E-03  0.72479E-03  0.12742E-02  0.17886E-02  0.21255E-02
  0.21920E-02  0.19256E-02  0.13101E-02  0.42884E-03  0.55874E-03  0.12833E-02
  0.10495E-02  0.10438E-02  0.83931E-03  0.36676E-03  0.34765E-03  0.11123E-02
  0.17667E-02  0.21809E-02  0.23058E-02  0.21532E-02  0.17756E-02  0.12567E-02
  0.72106E-03  0.48461E-03  0.79625E-03  0.11797E-02  0.14465E-02  0.15497E-02
  0.14826E-02  0.12619E-02  0.92703E-03  0.55642E-03  0.28453E-03  0.18453E-03
  0.25986E-03  0.73198E-03  0.13689E-02  0.19036E-02  0.21116E-02  0.19036E-02
  0.13689E-02  0.73198E-03  0.25986E-03  0.18453E-03  0.28453E-03  0.55642E-03
  0.92703E-03  0.12619E-02  0.14826E-02  0.15497E-02  0.14465E-02  0.11797E-02
  0.79625E-03  0.48461E-03  0.72106E-03  0.12567E-02  0.17756E-02  0.21532E-02
  0.23058E-02  0.21809E-02  0.17667E-02  0.11123E-02  0.34765E-03  0.36676E-03
  0.85674E-03  0.63492E-03  0.24342E-03  0.34462E-03  0.99247E-03  0.16156E-02
  0.20940E-02  0.23508E-02  0.23594E-02  0.21364E-02  0.17333E-02  0.12261E-02
  0.71963E-03  0.46061E-03  0.69240E-03  0.10159E-02  0.12369E-02  0.13127E-02
  0.12409E-02  0.10411E-02  0.75643E-03  0.47021E-03  0.31485E-03  0.28453E-03
  0.22139E-03  0.38062E-03  0.78683E-03  0.11538E-02  0.12992E-02  0.11538E-02
  0.78683E-03  0.38062E-03  0.22139E-03  0.28453E-03  0.31485E-03  0.47021E-03
  0.75643E-03  0.10411E-02  0.12409E-02  0.13127E-02  0.12369E-02  0.10159E-02
  0.69240E-03  0.46061E-03  0.71963E-03  0.12261E-02  0.17333E-02  0.21364E-02
  0.23594E-02  0.23508E-02  0.20940E-02  0.16156E-02  0.99247E-03  0.34462E-03
  0.51280E-03  0.21656E-03  0.33246E-03  0.87805E-03  0.14517E-02  0.19472E-02
  0.22850E-02  0.24185E-02  0.23378E-02  0.20675E-02  0.16597E-02  0.11814E-02
  0.71785E-03  0.45343E-03  0.59703E-03  0.84940E-03  0.10169E-02  0.10593E-02
  0.97736E-03  0.79391E-03  0.56710E-03  0.42461E-03  0.47021E-03  0.55642E-03
  0.54473E-03  0.42459E-03  0.31385E-03  0.35626E-03  0.40719E-03  0.35626E-03
  0.31385E-03  0.42459E-03  0.54473E-03  0.55642E-03  0.47021E-03  0.42461E-03
  0.56710E-03  0.79391E-03  0.97736E-03  0.10593E-02  0.10169E-02  0.84940E-03
  0.59703E-03  0.45343E-03  0.71785E-03  0.11814E-02  0.16597E-02  0.20675E-02
  0.23378E-02  0.24185E-02  0.22850E-02  0.19472E-02  0.14517E-02  0.87805E-03
  0.22156E-03  0.32069E-03  0.75327E-03  0.12576E-02  0.17373E-02  0.21163E-02
  0.23409E-02  0.23837E-02  0.22455E-02  0.19555E-02  0.15639E-02  0.11279E-02
  0.71608E-03  0.46328E-03  0.52397E-03  0.69858E-03  0.80960E-03  0.81875E-03
  0.73178E-03  0.58656E-03  0.48843E-03  0.56710E-03  0.75643E-03  0.92703E-03
  0.10177E-02  0.10154E-02  0.94601E-03  0.86583E-03  0.83153E-03  0.86583E-03
  0.94601E-03  0.10154E-02  0.10177E-02  0.92703E-03  0.75643E-03  0.56710E-03
  0.48843E-03  0.58656E-03  0.73178E-03  0.81875E-03  0.80960E-03  0.69858E-03
  0.52397E-03  0.46328E-03  0.71608E-03  0.11279E-02  0.15639E-02  0.19555E-02
  0.22455E-02  0.23837E-02  0.23409E-02  0.21163E-02  0.17373E-02  0.12576E-02
  0.27653E-03  0.59017E-03  0.10155E-02  0.14574E-02  0.18477E-02  0.21320E-02
  0.22756E-02  0.22627E-02  0.20990E-02  0.18143E-02  0.14546E-02  0.10689E-02
  0.71352E-03  0.48598E-03  0.48365E-03  0.58391E-03  0.64498E-03  0.63328E-03
  0.56628E-03  0.51292E-03  0.58656E-03  0.79391E-03  0.10411E-02  0.12619E-02
  0.14256E-02  0.15201E-02  0.15511E-02  0.15454E-02  0.15380E-02  0.15454E-02
  0.15511E-02  0.15201E-02  0.14256E-02  0.12619E-02  0.10411E-02  0.79391E-03
  0.58656E-03  0.51292E-03  0.56628E-03  0.63328E-03  0.64498E-03  0.58391E-03
  0.48365E-03  0.48598E-03  0.71352E-03  0.10689E-02  0.14546E-02  0.18143E-02
  0.20990E-02  0.22627E-02  0.22756E-02  0.21320E-02  0.18477E-02  0.14574E-02
  0.36619E-03  0.70176E-03  0.10981E-02  0.14832E-02  0.18042E-02  0.20232E-02
  0.21181E-02  0.20796E-02  0.19146E-02  0.16512E-02  0.13316E-02  0.99985E-03
  0.70351E-03  0.51205E-03  0.47674E-03  0.52087E-03  0.54831E-03  0.53697E-03
  0.51832E-03  0.56628E-03  0.73178E-03  0.97736E-03  0.12409E-02  0.14826E-02
  0.16818E-02  0.18259E-02  0.19112E-02  0.19486E-02  0.19578E-02  0.19486E-02
  0.19112E-02  0.18259E-02  0.16818E-02  0.14826E-02  0.12409E-02  0.97737E-03
  0.73178E-03  0.56628E-03  0.51832E-03  0.53697E-03  0.54831E-03  0.52087E-03
  0.47674E-03  0.51205E-03  0.70351E-03  0.99985E-03  0.13316E-02  0.16512E-02
  0.19146E-02  0.20796E-02  0.21181E-02  0.20232E-02  0.18042E-02  0.14832E-02
  0.37770E-03  0.69186E-03  0.10520E-02  0.13890E-02  0.16596E-02  0.18364E-02
  0.19052E-02  0.18595E-02  0.17058E-02  0.14703E-02  0.11933E-02  0.91580E-03
  0.67860E-03  0.52912E-03  0.48780E-03  0.50230E-03  0.51424E-03  0.51455E-03
  0.53697E-03  0.63328E-03  0.81875E-03  0.10593E-02  0.13127E-02  0.15497E-02
  0.17523E-02  0.19076E-02  0.20096E-02  0.20632E-02  0.20792E-02  0.20632E-02
  0.20096E-02  0.19076E-02  0.17523E-02  0.15497E-02  0.13127E-02  0.10593E-02
  0.81875E-03  0.63328E-03  0.53697E-03  0.51455E-03  0.51424E-03  0.50230E-03
  0.48780E-03  0.52912E-03  0.67860E-03  0.91580E-03  0.11933E-02  0.14703E-02
  0.17058E-02  0.18595E-02  0.19052E-02  0.18364E-02  0.16596E-02  0.13890E-02
  0.35750E-03  0.62972E-03  0.94947E-03  0.12429E-02  0.14727E-02  0.16186E-02
  0.16712E-02  0.16258E-02  0.14881E-02  0.12827E-02  0.10476E-02  0.82130E-03
  0.63834E-03  0.52929E-03  0.49658E-03  0.50134E-03  0.50792E-03  0.51424E-03
  0.54831E-03  0.64498E-03  0.80960E-03  0.10169E-02  0.12369E-02  0.14465E-02
  0.16282E-02  0.17697E-02  0.18663E-02  0.19206E-02  0.19378E-02  0.19206E-02
  0.18663E-02  0.17697E-02  0.16282E-02  0.14465E-02  0.12369E-02  0.10169E-02
  0.80960E-03  0.64498E-03  0.54831E-03  0.51424E-03  0.50792E-03  0.50134E-03
  0.49658E-03  0.52929E-03  0.63834E-03  0.82130E-03  0.10476E-02  0.12827E-02
  0.14881E-02  0.16258E-02  0.16712E-02  0.16186E-02  0.14727E-02  0.12429E-02
  0.33587E-03  0.55845E-03  0.83705E-03  0.10893E-02  0.12815E-02  0.13997E-02