       #
       # Generated by the Wannier90 code http://www.wannier.org
       # On 10May2024 at 21:04:43 
       #
CRYSTAL
PRIMVEC
   2.7281430   0.0000000   0.0000000
   0.0000000   2.7281430   0.0000000
   0.0000000   0.0000000   3.7789840
CONVVEC
   2.7281430   0.0000000   0.0000000
   0.0000000   2.7281430   0.0000000
   0.0000000   0.0000000   3.7789840
PRIMCOORD
     2  1
Fe      0.0000000   0.0000000   0.0000000
Pt      1.3640715   1.3640715   1.8894920


BEGIN_BLOCK_DATAGRID_3D
3D_field
BEGIN_DATAGRID_3D_UNKNOWN
    54    54    80
   -2.829185   -2.829185   -3.873459
   5.3552437   0.0000000   0.0000000
   0.0000000   5.3552437   0.0000000
   0.0000000   0.0000000   7.4634934
  0.64191E-02  0.58911E-02  0.44238E-02  0.25462E-02  0.10428E-02  0.58207E-03
  0.29917E-03  0.63872E-03  0.16026E-02  0.24487E-02  0.30420E-02  0.33712E-02
  0.34461E-02  0.32822E-02  0.29084E-02  0.23516E-02  0.16449E-02  0.87233E-03
  0.19957E-03  0.55917E-03  0.11015E-02  0.12698E-02  0.29676E-03  0.27737E-02
  0.75596E-02  0.11989E-01  0.12918E-01  0.85041E-02  0.84365E-03  0.85041E-02
  0.12918E-01  0.11989E-01  0.75596E-02  0.27737E-02  0.29676E-03  0.12698E-02
  0.11015E-02  0.55917E-03  0.19957E-03  0.87233E-03  0.16449E-02  0.23516E-02
  0.29084E-02  0.32822E-02  0.34461E-02  0.33712E-02  0.30420E-02  0.24487E-02
  0.16026E-02  0.63872E-03  0.29917E-03  0.58207E-03  0.10428E-02  0.25462E-02
  0.58911E-02  0.58987E-02  0.49156E-02  0.33100E-02  0.17231E-02  0.71837E-03
  0.32031E-03  0.49554E-03  0.10944E-02  0.16558E-02  0.20470E-02  0.22398E-02
  0.22259E-02  0.20085E-02  0.16082E-02  0.10485E-02  0.38101E-03  0.42736E-03
  0.10696E-02  0.16065E-02  0.19830E-02  0.18452E-02  0.35735E-03  0.34423E-02
  0.90038E-02  0.13949E-01  0.14831E-01  0.97088E-02  0.11874E-02  0.97088E-02
  0.14831E-01  0.13949E-01  0.90038E-02  0.34423E-02  0.35735E-03  0.18452E-02
  0.19830E-02  0.16065E-02  0.10696E-02  0.42736E-03  0.38101E-03  0.10485E-02
  0.16082E-02  0.20085E-02  0.22259E-02  0.22398E-02  0.20470E-02  0.16558E-02
  0.10944E-02  0.49554E-03  0.32031E-03  0.71837E-03  0.17231E-02  0.33100E-02
  0.44238E-02  0.49156E-02  0.45259E-02  0.34276E-02  0.20936E-02  0.10119E-02
  0.40670E-03  0.31412E-03  0.56446E-03  0.82722E-03  0.10019E-02  0.10510E-02
  0.94916E-03  0.69174E-03  0.32222E-03  0.37851E-03  0.99324E-03  0.16632E-02
  0.22442E-02  0.26708E-02  0.28872E-02  0.25526E-02  0.87030E-03  0.29651E-02
  0.84443E-02  0.13262E-01  0.14152E-01  0.93220E-02  0.16941E-02  0.93220E-02
  0.14152E-01  0.13262E-01  0.84443E-02  0.29651E-02  0.87030E-03  0.25526E-02
  0.28872E-02  0.26708E-02  0.22442E-02  0.16632E-02  0.99324E-03  0.37851E-03
  0.32222E-03  0.69174E-03  0.94916E-03  0.10510E-02  0.10019E-02  0.82722E-03
  0.56446E-03  0.31412E-03  0.40670E-03  0.10119E-02  0.20936E-02  0.34276E-02
  0.25462E-02  0.33100E-02  0.34276E-02  0.28756E-02  0.19344E-02  0.98496E-03
  0.29240E-03  0.15912E-03  0.34311E-03  0.43453E-03  0.47525E-03  0.50236E-03
  0.58419E-03  0.79963E-03  0.11640E-02  0.16571E-02  0.22488E-02  0.28591E-02
  0.33681E-02  0.36973E-02  0.37918E-02  0.33892E-02  0.18585E-02  0.14363E-02
  0.60896E-02  0.10238E-01  0.11199E-01  0.75069E-02  0.18149E-02  0.75069E-02
  0.11199E-01  0.10238E-01  0.60896E-02  0.14363E-02  0.18585E-02  0.33892E-02
  0.37918E-02  0.36973E-02  0.33681E-02  0.28591E-02  0.22488E-02  0.16571E-02
  0.11640E-02  0.79963E-03  0.58419E-03  0.50236E-03  0.47525E-03  0.43453E-03
  0.34311E-03  0.15912E-03  0.29240E-03  0.98496E-03  0.19344E-02  0.28756E-02
  0.10428E-02  0.17231E-02  0.20936E-02  0.19344E-02  0.13491E-02  0.59015E-03
  0.12213E-03  0.65801E-03  0.10318E-02  0.12762E-02  0.14378E-02  0.15784E-02
  0.17650E-02  0.20369E-02  0.23997E-02  0.28511E-02  0.33797E-02  0.39241E-02
  0.43709E-02  0.46277E-02  0.46430E-02  0.42565E-02  0.30557E-02  0.62753E-03
  0.28806E-02  0.60874E-02  0.71325E-02  0.49519E-02  0.14670E-02  0.49519E-02
  0.71325E-02  0.60874E-02  0.28806E-02  0.62753E-03  0.30557E-02  0.42565E-02
  0.46430E-02  0.46277E-02  0.43709E-02  0.39241E-02  0.33797E-02  0.28511E-02
  0.23997E-02  0.20369E-02  0.17650E-02  0.15784E-02  0.14378E-02  0.12762E-02
  0.10318E-02  0.65801E-03  0.12213E-03  0.59015E-03  0.13491E-02  0.19344E-02
  0.58207E-03  0.71837E-03  0.10119E-02  0.98496E-03  0.59015E-03  0.51190E-04
  0.74607E-03  0.13831E-02  0.18892E-02  0.22491E-02  0.24904E-02  0.26754E-02
  0.28747E-02  0.31321E-02  0.34583E-02  0.38536E-02  0.43120E-02  0.47875E-02
  0.51808E-02  0.53920E-02  0.53663E-02  0.50237E-02  0.41487E-02  0.24885E-02
  0.18985E-03  0.21761E-02  0.32694E-02  0.24790E-02  0.88029E-03  0.24790E-02
  0.32694E-02  0.21761E-02  0.18985E-03  0.24885E-02  0.41487E-02  0.50237E-02
  0.53663E-02  0.53920E-02  0.51808E-02  0.47875E-02  0.43120E-02  0.38535E-02
  0.34583E-02  0.31321E-02  0.28747E-02  0.26754E-02  0.24904E-02  0.22491E-02
  0.18892E-02  0.13831E-02  0.74607E-03  0.51190E-04  0.59015E-03  0.98496E-03
  0.29917E-03  0.32031E-03  0.40670E-03  0.29240E-03  0.12213E-03  0.74607E-03
  0.14748E-02  0.21686E-02  0.27366E-02  0.31466E-02  0.34182E-02  0.36084E-02
  0.37861E-02  0.40016E-02  0.42741E-02  0.46049E-02  0.49873E-02  0.53887E-02
  0.57314E-02  0.59191E-02  0.58861E-02  0.55880E-02  0.49392E-02  0.38251E-02
  0.22785E-02  0.66663E-03  0.46314E-03  0.65666E-03  0.36205E-03  0.65666E-03
  0.46314E-03  0.66663E-03  0.22785E-02  0.38251E-02  0.49392E-02  0.55880E-02
  0.58861E-02  0.59191E-02  0.57314E-02  0.53887E-02  0.49873E-02  0.46049E-02
  0.42741E-02  0.40016E-02  0.37861E-02  0.36084E-02  0.34182E-02  0.31466E-02
  0.27366E-02  0.21686E-02  0.14748E-02  0.74607E-03  0.12213E-03  0.29240E-03
  0.63872E-03  0.49554E-03  0.31412E-03  0.15912E-03  0.65801E-03  0.13831E-02
  0.21686E-02  0.28908E-02  0.34702E-02  0.38832E-02  0.41502E-02  0.43198E-02
  0.44545E-02  0.46096E-02  0.48139E-02  0.50704E-02  0.53700E-02  0.56903E-02
  0.59786E-02  0.61531E-02  0.61375E-02  0.58867E-02  0.53704E-02  0.45584E-02
  0.34710E-02  0.22597E-02  0.11872E-02  0.45577E-03  0.86727E-04  0.45577E-03
  0.11872E-02  0.22597E-02  0.34710E-02  0.45584E-02  0.53704E-02  0.58867E-02
  0.61375E-02  0.61531E-02  0.59786E-02  0.56903E-02  0.53700E-02  0.50704E-02
  0.48139E-02  0.46096E-02  0.44545E-02  0.43198E-02  0.41502E-02  0.38832E-02
  0.34702E-02  0.28908E-02  0.21686E-02  0.13831E-02  0.65801E-03  0.15912E-03
  0.16026E-02  0.10944E-02  0.56446E-03  0.34311E-03  0.10318E-02  0.18892E-02
  0.27366E-02  0.34702E-02  0.40342E-02  0.44228E-02  0.46608E-02  0.47903E-02
  0.48667E-02  0.49470E-02  0.50687E-02  0.52395E-02  0.54501E-02  0.56845E-02
  0.59106E-02  0.60670E-02  0.60772E-02  0.58823E-02  0.54576E-02  0.48033E-02
  0.39426E-02  0.29398E-02  0.19004E-02  0.91735E-03  0.56199E-04  0.91735E-03
  0.19004E-02  0.29398E-02  0.39426E-02  0.48033E-02  0.54576E-02  0.58823E-02
  0.60772E-02  0.60670E-02  0.59106E-02  0.56845E-02  0.54501E-02  0.52395E-02
  0.50687E-02  0.49470E-02  0.48667E-02  0.47903E-02  0.46608E-02  0.44228E-02
  0.40342E-02  0.34702E-02  0.27366E-02  0.18892E-02  0.10318E-02  0.34311E-03
  0.24487E-02  0.16558E-02  0.82722E-03  0.43453E-03  0.12762E-02  0.22491E-02
  0.31466E-02  0.38832E-02  0.44228E-02  0.47726E-02  0.49630E-02  0.50341E-02
  0.50365E-02  0.50269E-02  0.50498E-02  0.51221E-02  0.52384E-02  0.53860E-02
  0.55439E-02  0.56694E-02  0.56971E-02  0.55627E-02  0.52286E-02  0.46895E-02
  0.39626E-02  0.30824E-02  0.20990E-02  0.10679E-02  0.17057E-03  0.10679E-02
  0.20990E-02  0.30824E-02  0.39626E-02  0.46895E-02  0.52286E-02  0.55627E-02
  0.56971E-02  0.56694E-02  0.55439E-02  0.53860E-02  0.52384E-02  0.51221E-02
  0.50498E-02  0.50269E-02  0.50365E-02  0.50341E-02  0.49630E-02  0.47726E-02
  0.44228E-02  0.38832E-02  0.31466E-02  0.22491E-02  0.12762E-02  0.43453E-03
  0.30420E-02  0.20470E-02  0.10019E-02  0.47525E-03  0.14378E-02  0.24904E-02
  0.34182E-02  0.41502E-02  0.46608E-02  0.49630E-02  0.50908E-02  0.50862E-02
  0.49979E-02  0.48817E-02  0.47882E-02  0.47470E-02  0.47625E-02  0.48243E-02
  0.49140E-02  0.50004E-02  0.50341E-02  0.49567E-02  0.47203E-02  0.43012E-02
  0.37000E-02  0.29364E-02  0.20459E-02  0.10830E-02  0.32964E-03  0.10830E-02
  0.20459E-02  0.29364E-02  0.37000E-02  0.43012E-02  0.47203E-02  0.49567E-02
  0.50341E-02  0.50004E-02  0.49140E-02  0.48243E-02  0.47625E-02  0.47470E-02
  0.47882E-02  0.48817E-02  0.49979E-02  0.50862E-02  0.50908E-02  0.49630E-02
  0.46608E-02  0.41502E-02  0.34182E-02  0.24904E-02  0.14378E-02  0.47525E-03
  0.33712E-02  0.22398E-02  0.10510E-02  0.50236E-03  0.15784E-02  0.26754E-02
  0.36084E-02  0.43198E-02  0.47903E-02  0.50341E-02  0.50862E-02  0.49906E-02
  0.47963E-02  0.45588E-02  0.43341E-02  0.41654E-02  0.40708E-02  0.40458E-02
  0.40723E-02  0.41235E-02  0.41612E-02  0.41359E-02  0.39964E-02  0.37045E-02
  0.32438E-02  0.26217E-02  0.18694E-02  0.10537E-02  0.50090E-03  0.10537E-02
  0.18694E-02  0.26217E-02  0.32438E-02  0.37045E-02  0.39964E-02  0.41359E-02
  0.41612E-02  0.41235E-02  0.40723E-02  0.40458E-02  0.40708E-02  0.41654E-02
  0.43341E-02  0.45588E-02  0.47963E-02  0.49906E-02  0.50862E-02  0.50341E-02
  0.47903E-02  0.43198E-02  0.36084E-02  0.26754E-02  0.15784E-02  0.50236E-03
  0.34461E-02  0.22259E-02  0.94916E-03  0.58419E-03  0.17650E-02  0.28747E-02
  0.37861E-02  0.44545E-02  0.48667E-02  0.50365E-02  0.49979E-02  0.47963E-02
  0.44830E-02  0.41153E-02  0.37536E-02  0.34507E-02  0.32380E-02  0.31220E-02
  0.30899E-02  0.31169E-02  0.31671E-02  0.31937E-02  0.31457E-02  0.29792E-02
  0.26689E-02  0.22133E-02  0.16397E-02  0.10283E-02  0.67544E-03  0.10283E-02
  0.16397E-02  0.22133E-02  0.26689E-02  0.29792E-02  0.31457E-02  0.31937E-02
  0.31671E-02  0.31169E-02  0.30899E-02  0.31220E-02  0.32380E-02  0.34507E-02
  0.37536E-02  0.41153E-02  0.44830E-02  0.47963E-02  0.49979E-02  0.50365E-02
  0.48667E-02  0.44545E-02  0.37861E-02  0.28747E-02  0.17650E-02  0.58419E-03
  0.32822E-02  0.20085E-02  0.69174E-03  0.79963E-03  0.20369E-02  0.31321E-02
  0.40016E-02  0.46096E-02  0.49470E-02  0.50269E-02  0.48817E-02  0.45588E-02
  0.41153E-02  0.36143E-02  0.31193E-02  0.26867E-02  0.23565E-02  0.21480E-02
  0.20597E-02  0.20706E-02  0.21421E-02  0.22239E-02  0.22640E-02  0.22198E-02
  0.20637E-02  0.17887E-02  0.14181E-02  0.10337E-02  0.84203E-03  0.10337E-02
  0.14181E-02  0.17887E-02  0.20637E-02  0.22198E-02  0.22640E-02  0.22239E-02
  0.21421E-02  0.20706E-02  0.20597E-02  0.21480E-02  0.23565E-02  0.26867E-02
  0.31193E-02  0.36143E-02  0.41153E-02  0.45588E-02  0.48817E-02  0.50269E-02
  0.49470E-02  0.46096E-02  0.40016E-02  0.31321E-02  0.20369E-02  0.79963E-03
  0.29084E-02  0.16082E-02  0.32222E-03  0.11640E-02  0.23997E-02  0.34583E-02
  0.42741E-02  0.48139E-02  0.50687E-02  0.50498E-02  0.47882E-02  0.43341E-02
  0.37536E-02  0.31193E-02  0.24997E-02  0.19519E-02  0.15201E-02  0.12331E-02
  0.10978E-02  0.10964E-02  0.11898E-02  0.13260E-02  0.14528E-02  0.15285E-02
  0.15241E-02  0.14270E-02  0.12539E-02  0.10688E-02  0.98373E-03  0.10688E-02
  0.12539E-02  0.14270E-02  0.15241E-02  0.15285E-02  0.14528E-02  0.13260E-02
  0.11898E-02  0.10964E-02  0.10978E-02  0.12331E-02  0.15201E-02  0.19519E-02
  0.24997E-02  0.31193E-02  0.37536E-02  0.43341E-02  0.47882E-02  0.50498E-02
  0.50687E-02  0.48139E-02  0.42741E-02  0.34583E-02  0.23997E-02  0.11640E-02
  0.23516E-02  0.10485E-02  0.37851E-03  0.16571E-02  0.28511E-02  0.38536E-02
  0.46049E-02  0.50704E-02  0.52395E-02  0.51221E-02  0.47470E-02  0.41654E-02
  0.34507E-02  0.26867E-02  0.19519E-02  0.13116E-02  0.82581E-03  0.55238E-03
  0.47723E-03  0.49044E-03  0.55608E-03  0.68849E-03  0.86111E-03  0.10258E-02
  0.11418E-02  0.11858E-02  0.11629E-02  0.11114E-02  0.10852E-02  0.11114E-02
  0.11629E-02  0.11858E-02  0.11418E-02  0.10258E-02  0.86111E-03  0.68849E-03
  0.55608E-03  0.49044E-03  0.47723E-03  0.55239E-03  0.82581E-03  0.13116E-02
  0.19519E-02  0.26867E-02  0.34507E-02  0.41654E-02  0.47470E-02  0.51221E-02
  0.52395E-02  0.50704E-02  0.46049E-02  0.38535E-02  0.28511E-02  0.16571E-02
  0.16449E-02  0.38101E-03  0.99324E-03  0.22488E-02  0.33797E-02  0.43120E-02
  0.49873E-02  0.53700E-02  0.54501E-02  0.52384E-02  0.47625E-02  0.40708E-02
  0.32380E-02  0.23565E-02  0.15201E-02  0.82581E-03  0.47105E-03  0.60199E-03
  0.77780E-03  0.82589E-03  0.77299E-03  0.70672E-03  0.71898E-03  0.82528E-03
  0.96216E-03  0.10682E-02  0.11215E-02  0.11354E-02  0.11359E-02  0.11354E-02
  0.11215E-02  0.10682E-02  0.96216E-03  0.82528E-03  0.71898E-03  0.70672E-03
  0.77299E-03  0.82589E-03  0.77780E-03  0.60199E-03  0.47105E-03  0.82581E-03
  0.15201E-02  0.23565E-02  0.32380E-02  0.40708E-02  0.47625E-02  0.52384E-02
  0.54501E-02  0.53700E-02  0.49873E-02  0.43120E-02  0.33797E-02  0.22488E-02
  0.87233E-03  0.42736E-03  0.16632E-02  0.28591E-02  0.39241E-02  0.47875E-02
  0.53887E-02  0.56903E-02  0.56845E-02  0.53860E-02  0.48243E-02  0.40458E-02
  0.31220E-02  0.21480E-02  0.12331E-02  0.55239E-03  0.60199E-03  0.98081E-03
  0.12223E-02  0.12813E-02  0.11927E-02  0.10279E-02  0.88170E-03  0.84145E-03
  0.91036E-03  0.10112E-02  0.10847E-02  0.11201E-02  0.11293E-02  0.11201E-02
  0.10847E-02  0.10112E-02  0.91036E-03  0.84145E-03  0.88170E-03  0.10279E-02
  0.11927E-02  0.12813E-02  0.12223E-02  0.98081E-03  0.60199E-03  0.55239E-03
  0.12331E-02  0.21480E-02  0.31220E-02  0.40458E-02  0.48243E-02  0.53860E-02
  0.56845E-02  0.56903E-02  0.53887E-02  0.47875E-02  0.39241E-02  0.28591E-02
  0.19957E-03  0.10696E-02  0.22442E-02  0.33681E-02  0.43709E-02  0.51808E-02
  0.57314E-02  0.59786E-02  0.59106E-02  0.55439E-02  0.49140E-02  0.40723E-02
  0.30899E-02  0.20597E-02  0.10978E-02  0.47723E-03  0.77780E-03  0.12223E-02
  0.14854E-02  0.15454E-02  0.14343E-02  0.12160E-02  0.98218E-03  0.84269E-03
  0.85247E-03  0.94031E-03  0.10162E-02  0.10524E-02  0.10610E-02  0.10524E-02
  0.10162E-02  0.94031E-03  0.85247E-03  0.84269E-03  0.98218E-03  0.12160E-02
  0.14343E-02  0.15454E-02  0.14854E-02  0.12223E-02  0.77780E-03  0.47723E-03
  0.10978E-02  0.20597E-02  0.30899E-02  0.40723E-02  0.49140E-02  0.55439E-02
  0.59106E-02  0.59786E-02  0.57314E-02  0.51808E-02  0.43709E-02  0.33681E-02
  0.55917E-03  0.16065E-02  0.26708E-02  0.36973E-02  0.46277E-02  0.53920E-02
  0.59191E-02  0.61531E-02  0.60670E-02  0.56694E-02  0.50004E-02  0.41235E-02
  0.31169E-02  0.20706E-02  0.10964E-02  0.49044E-03  0.82589E-03  0.12813E-02
  0.15454E-02  0.15943E-02  0.14552E-02  0.11888E-02  0.89199E-03  0.70553E-03
  0.72609E-03  0.84246E-03  0.91989E-03  0.93379E-03  0.92802E-03  0.93379E-03
  0.91989E-03  0.84246E-03  0.72609E-03  0.70553E-03  0.89199E-03  0.11888E-02
  0.14552E-02  0.15943E-02  0.15454E-02  0.12813E-02  0.82589E-03  0.49044E-03
  0.10964E-02  0.20706E-02  0.31169E-02  0.41235E-02  0.50004E-02  0.56694E-02
  0.60670E-02  0.61531E-02  0.59191E-02  0.53920E-02  0.46277E-02  0.36973E-02
  0.11015E-02  0.19830E-02  0.28872E-02  0.37918E-02  0.46430E-02  0.53663E-02
  0.58861E-02  0.61375E-02  0.60772E-02  0.56971E-02  0.50341E-02  0.41612E-02
  0.31671E-02  0.21421E-02  0.11898E-02  0.55608E-03  0.77299E-03  0.11927E-02
  0.14343E-02  0.14552E-02  0.12734E-02  0.94567E-03  0.58633E-03  0.45993E-03
  0.66274E-03  0.85500E-03  0.89630E-03  0.80984E-03  0.74255E-03  0.80984E-03
  0.89630E-03  0.85500E-03  0.66274E-03  0.45993E-03  0.58633E-03  0.94567E-03
  0.12734E-02  0.14552E-02  0.14343E-02  0.11927E-02  0.77299E-03  0.55608E-03
  0.11898E-02  0.21421E-02  0.31671E-02  0.41612E-02  0.50341E-02  0.56971E-02
  0.60772E-02  0.61375E-02  0.58861E-02  0.53663E-02  0.46430E-02  0.37918E-02
  0.12698E-02  0.18452E-02  0.25526E-02  0.33892E-02  0.42565E-02  0.50237E-02
  0.55880E-02  0.58867E-02  0.58823E-02  0.55627E-02  0.49567E-02  0.41359E-02
  0.31937E-02  0.22239E-02  0.13260E-02  0.68849E-03  0.70672E-03  0.10279E-02
  0.12160E-02  0.11888E-02  0.94567E-03  0.52956E-03  0.16573E-03  0.59223E-03
  0.10057E-02  0.12037E-02  0.11229E-02  0.81320E-03  0.57721E-03  0.81320E-03
  0.11229E-02  0.12037E-02  0.10057E-02  0.59223E-03  0.16573E-03  0.52956E-03
  0.94567E-03  0.11888E-02  0.12160E-02  0.10279E-02  0.70672E-03  0.68849E-03
  0.13260E-02  0.22239E-02  0.31937E-02  0.41359E-02  0.49567E-02  0.55627E-02
  0.58823E-02  0.58867E-02  0.55880E-02  0.50237E-02  0.42565E-02  0.33892E-02
  0.29676E-03  0.35735E-03  0.87030E-03  0.18585E-02  0.30557E-02  0.41487E-02
  0.49392E-02  0.53704E-02  0.54576E-02  0.52286E-02  0.47203E-02  0.39964E-02
  0.31457E-02  0.22640E-02  0.14528E-02  0.86111E-03  0.71898E-03  0.88170E-03
  0.98218E-03  0.89199E-03  0.58632E-03  0.16573E-03  0.60520E-03  0.12210E-02
  0.16756E-02  0.18205E-02  0.15829E-02  0.10247E-02  0.57086E-03  0.10247E-02
  0.15829E-02  0.18205E-02  0.16756E-02  0.12210E-02  0.60520E-03  0.16573E-03
  0.58632E-03  0.89199E-03  0.98218E-03  0.88170E-03  0.71898E-03  0.86111E-03
  0.14528E-02  0.22640E-02  0.31457E-02  0.39964E-02  0.47203E-02  0.52286E-02
  0.54576E-02  0.53704E-02  0.49392E-02  0.41487E-02  0.30557E-02  0.18585E-02
  0.27737E-02  0.34423E-02  0.29651E-02  0.14363E-02  0.62753E-03  0.24885E-02
  0.38251E-02  0.45584E-02  0.48033E-02  0.46895E-02  0.43012E-02  0.37045E-02
  0.29792E-02  0.22198E-02  0.15285E-02  0.10258E-02  0.82528E-03  0.84145E-03
  0.84269E-03  0.70553E-03  0.45993E-03  0.59223E-03  0.12210E-02  0.18990E-02
  0.23705E-02  0.24521E-02  0.20667E-02  0.13036E-02  0.69564E-03  0.13036E-02
  0.20667E-02  0.24521E-02  0.23705E-02  0.18990E-02  0.12210E-02  0.59223E-03
  0.45993E-03  0.70553E-03  0.84269E-03  0.84145E-03  0.82528E-03  0.10258E-02
  0.15285E-02  0.22198E-02  0.29792E-02  0.37045E-02  0.43012E-02  0.46895E-02
  0.48033E-02  0.45584E-02  0.38251E-02  0.24885E-02  0.62753E-03  0.14363E-02
  0.75596E-02  0.90038E-02  0.84443E-02  0.60896E-02  0.28806E-02  0.18985E-03
  0.22785E-02  0.34710E-02  0.39426E-02  0.39626E-02  0.37000E-02  0.32438E-02
  0.26689E-02  0.20637E-02  0.15241E-02  0.11418E-02  0.96216E-03  0.91036E-03
  0.85247E-03  0.72609E-03  0.66274E-03  0.10057E-02  0.16756E-02  0.23705E-02
  0.28271E-02  0.28478E-02  0.23602E-02  0.14756E-02  0.78895E-03  0.14756E-02
  0.23602E-02  0.28478E-02  0.28271E-02  0.23705E-02  0.16756E-02  0.10057E-02
  0.66274E-03  0.72609E-03  0.85247E-03  0.91036E-03  0.96216E-03  0.11418E-02
  0.15241E-02  0.20637E-02  0.26689E-02  0.32438E-02  0.37000E-02  0.39626E-02
  0.39426E-02  0.34710E-02  0.22785E-02  0.18985E-03  0.28806E-02  0.60896E-02
  0.11989E-01  0.13949E-01  0.13262E-01  0.10238E-01  0.60874E-02  0.21761E-02
  0.66663E-03  0.22597E-02  0.29398E-02  0.30824E-02  0.29364E-02  0.26217E-02
  0.22133E-02  0.17887E-02  0.14270E-02  0.11858E-02  0.10682E-02  0.10112E-02
  0.94031E-03  0.84246E-03  0.85500E-03  0.12037E-02  0.18205E-02  0.24521E-02
  0.28478E-02  0.28224E-02  0.23159E-02  0.14429E-02  0.77796E-03  0.14429E-02
  0.23159E-02  0.28224E-02  0.28478E-02  0.24521E-02  0.18205E-02  0.12037E-02
  0.85500E-03  0.84245E-03  0.94031E-03  0.10112E-02  0.10682E-02  0.11858E-02
  0.14270E-02  0.17887E-02  0.22133E-02  0.26217E-02  0.29364E-02  0.30824E-02
  0.29398E-02  0.22597E-02  0.66663E-03  0.21761E-02  0.60874E-02  0.10238E-01
  0.12918E-01  0.14831E-01  0.14152E-01  0.11199E-01  0.71325E-02  0.32694E-02
  0.46314E-03  0.11872E-02  0.19004E-02  0.20990E-02  0.20459E-02  0.18694E-02
  0.16397E-02  0.14181E-02  0.12539E-02  0.11629E-02  0.11215E-02  0.10847E-02
  0.10162E-02  0.91989E-03  0.89630E-03  0.11229E-02  0.15829E-02  0.20667E-02
  0.23602E-02  0.23159E-02  0.18911E-02  0.11787E-02  0.64187E-03  0.11787E-02
  0.18911E-02  0.23159E-02  0.23602E-02  0.20667E-02  0.15829E-02  0.11229E-02
  0.89630E-03  0.91989E-03  0.10162E-02  0.10847E-02  0.11215E-02  0.11629E-02
  0.12539E-02  0.14181E-02  0.16397E-02  0.18694E-02  0.20459E-02  0.20990E-02
  0.19004E-02  0.11872E-02  0.46314E-03  0.32694E-02  0.71325E-02  0.11199E-01
  0.85041E-02  0.97088E-02  0.93219E-02  0.75069E-02  0.49519E-02  0.24790E-02
  0.65666E-03  0.45577E-03  0.91734E-03  0.10679E-02  0.10830E-02  0.10537E-02
  0.10283E-02  0.10337E-02  0.10688E-02  0.11114E-02  0.11354E-02  0.11201E-02
  0.10524E-02  0.93379E-03  0.80984E-03  0.81320E-03  0.10248E-02  0.13036E-02
  0.14756E-02  0.14429E-02  0.11787E-02  0.72759E-03  0.37034E-03  0.72759E-03
  0.11787E-02  0.14429E-02  0.14756E-02  0.13036E-02  0.10248E-02  0.81320E-03
  0.80984E-03  0.93379E-03  0.10524E-02  0.11201E-02  0.11354E-02  0.11114E-02
  0.10688E-02  0.10337E-02  0.10283E-02  0.10537E-02  0.10830E-02  0.10679E-02
  0.91735E-03  0.45577E-03  0.65666E-03  0.24790E-02  0.49519E-02  0.75069E-02
  0.84365E-03  0.11874E-02  0.16941E-02  0.18149E-02  0.14670E-02  0.88029E-03
  0.36206E-03  0.86727E-04  0.56199E-04  0.17057E-03  0.32964E-03  0.50090E-03
  0.67544E-03  0.84203E-03  0.98373E-03  0.10852E-02  0.11359E-02  0.11293E-02
  0.10610E-02  0.92802E-03  0.74255E-03  0.57721E-03  0.57086E-03  0.69564E-03
  0.78895E-03  0.77796E-03  0.64187E-03  0.37034E-03  0.34663E-08  0.37034E-03
  0.64187E-03  0.77796E-03  0.78895E-03  0.69564E-03  0.57086E-03  0.57721E-03
  0.74255E-03  0.92802E-03  0.10610E-02  0.11293E-02  0.11359E-02  0.10852E-02
  0.98373E-03  0.84203E-03  0.67544E-03  0.50090E-03  0.32964E-03  0.17057E-03
  0.56199E-04  0.86727E-04  0.36206E-03  0.88029E-03  0.14670E-02  0.18149E-02
  0.85041E-02  0.97088E-02  0.93220E-02  0.75069E-02  0.49519E-02  0.24790E-02
  0.65666E-03  0.45577E-03  0.91735E-03  0.10679E-02  0.10830E-02  0.10537E-02
  0.10283E-02  0.10337E-02  0.10688E-02  0.11114E-02  0.11354E-02  0.11201E-02
  0.10524E-02  0.93379E-03  0.80984E-03  0.81320E-03  0.10247E-02  0.13036E-02
  0.14756E-02  0.14429E-02  0.11787E-02  0.72759E-03  0.37034E-03  0.72759E-03
  0.11787E-02  0.14429E-02  0.14756E-02  0.13036E-02  0.10247E-02  0.81320E-03
  0.80984E-03  0.93379E-03  0.10524E-02  0.11201E-02  0.11354E-02  0.11114E-02
  0.10688E-02  0.10337E-02  0.10283E-02  0.10537E-02  0.10830E-02  0.10679E-02
  0.91735E-03  0.45577E-03  0.65666E-03  0.24790E-02  0.49519E-02  0.75069E-02
  0.12918E-01  0.14831E-01  0.14152E-01  0.11199E-01  0.71325E-02  0.32694E-02
  0.46314E-03  0.11872E-02  0.19004E-02  0.20990E-02  0.20459E-02  0.18694E-02
  0.16397E-02  0.14181E-02  0.12539E-02  0.11629E-02  0.11215E-02  0.10847E-02
  0.10162E-02  0.91989E-03  0.89630E-03  0.11229E-02  0.15829E-02  0.20667E-02
  0.23602E-02  0.23159E-02  0.18911E-02  0.11787E-02  0.64187E-03  0.11787E-02
  0.18911E-02  0.23159E-02  0.23602E-02  0.20667E-02  0.15829E-02  0.11229E-02
  0.89630E-03  0.91989E-03  0.10162E-02  0.10847E-02  0.11215E-02  0.11629E-02
  0.12539E-02  0.14181E-02  0.16397E-02  0.18694E-02  0.20459E-02  0.20990E-02
  0.19004E-02  0.11872E-02  0.46314E-03  0.32694E-02  0.71325E-02  0.11199E-01
  0.11989E-01  0.13949E-01  0.13262E-01  0.10238E-01  0.60874E-02  0.21761E-02
  0.66663E-03  0.22597E-02  0.29398E-02  0.30824E-02  0.29364E-02  0.26217E-02
  0.22133E-02  0.17887E-02  0.14270E-02  0.11858E-02  0.10682E-02  0.10112E-02
  0.94031E-03  0.84245E-03  0.85500E-03  0.12037E-02  0.18205E-02  0.24521E-02
  0.28478E-02  0.28224E-02  0.23159E-02  0.14429E-02  0.77796E-03  0.14429E-02
  0.23159E-02  0.28224E-02  0.28478E-02  0.24521E-02  0.18205E-02  0.12037E-02
  0.85500E-03  0.84245E-03  0.94031E-03  0.10112E-02  0.10682E-02  0.11858E-02
  0.14270E-02  0.17887E-02  0.22133E-02  0.26217E-02  0.29364E-02  0.30824E-02
  0.29398E-02  0.22597E-02  0.66663E-03  0.21761E-02  0.60874E-02  0.10238E-01
  0.75596E-02  0.90038E-02  0.84443E-02  0.60896E-02  0.28806E-02  0.18985E-03
  0.22785E-02  0.34710E-02  0.39426E-02  0.39626E-02  0.37000E-02  0.32438E-02
  0.26689E-02  0.20637E-02  0.15241E-02  0.11418E-02  0.96216E-03  0.91036E-03
  0.85247E-03  0.72609E-03  0.66274E-03  0.10057E-02  0.16756E-02  0.23705E-02
  0.28271E-02  0.28478E-02  0.23602E-02  0.14756E-02  0.78895E-03  0.14756E-02
  0.23602E-02  0.28478E-02  0.28271E-02  0.23705E-02  0.16756E-02  0.10057E-02
  0.66274E-03  0.72609E-03  0.85247E-03  0.91036E-03  0.96216E-03  0.11418E-02
  0.15241E-02  0.20637E-02  0.26689E-02  0.32438E-02  0.37000E-02  0.39626E-02
  0.39426E-02  0.34710E-02  0.22785E-02  0.18985E-03  0.28806E-02  0.60896E-02
  0.27737E-02  0.34423E-02  0.29651E-02  0.14363E-02  0.62753E-03  0.24885E-02
  0.38251E-02  0.45584E-02  0.48033E-02  0.46895E-02  0.43012E-02  0.37045E-02
  0.29792E-02  0.22198E-02  0.15285E-02  0.10258E-02  0.82528E-03  0.84145E-03
  0.84269E-03  0.70553E-03  0.45993E-03  0.59223E-03  0.12210E-02  0.18990E-02
  0.23705E-02  0.24521E-02  0.20667E-02  0.13036E-02  0.69564E-03  0.13036E-02
  0.20667E-02  0.24521E-02  0.23705E-02  0.18990E-02  0.12210E-02  0.59222E-03
  0.45993E-03  0.70553E-03  0.84269E-03  0.84145E-03  0.82528E-03  0.10258E-02
  0.15285E-02  0.22198E-02  0.29792E-02  0.37045E-02  0.43012E-02  0.46895E-02
  0.48033E-02  0.45584E-02  0.38251E-02  0.24885E-02  0.62753E-03  0.14363E-02
  0.29676E-03  0.35735E-03  0.87030E-03  0.18585E-02  0.30557E-02  0.41487E-02
  0.49392E-02  0.53704E-02  0.54576E-02  0.52286E-02  0.47203E-02  0.39964E-02
  0.31457E-02  0.22640E-02  0.14528E-02  0.86111E-03  0.71898E-03  0.88170E-03
  0.98218E-03  0.89199E-03  0.58633E-03  0.16573E-03  0.60520E-03  0.12210E-02
  0.16756E-02  0.18205E-02  0.15829E-02  0.10247E-02  0.57086E-03  0.10247E-02
  0.15829E-02  0.18205E-02  0.16756E-02  0.12210E-02  0.60520E-03  0.16573E-03
  0.58633E-03  0.89199E-03  0.98218E-03  0.88170E-03  0.71898E-03  0.86111E-03
  0.14528E-02  0.22640E-02  0.31457E-02  0.39964E-02  0.47203E-02  0.52286E-02
  0.54576E-02  0.53704E-02  0.49392E-02  0.41487E-02  0.30557E-02  0.18585E-02
  0.12698E-02  0.18452E-02  0.25526E-02  0.33892E-02  0.42565E-02  0.50237E-02
  0.55880E-02  0.58867E-02  0.58823E-02  0.55627E-02  0.49567E-02  0.41359E-02
  0.31937E-02  0.22239E-02  0.13260E-02  0.68849E-03  0.70672E-03  0.10280E-02
  0.12160E-02  0.11888E-02  0.94567E-03  0.52957E-03  0.16573E-03  0.59223E-03
  0.10057E-02  0.12037E-02  0.11229E-02  0.81320E-03  0.57721E-03  0.81320E-03
  0.11229E-02  0.12037E-02  0.10057E-02  0.59223E-03  0.16573E-03  0.52957E-03
  0.94567E-03  0.11888E-02  0.12160E-02  0.10280E-02  0.70672E-03  0.68849E-03
  0.13260E-02  0.22239E-02  0.31937E-02  0.41359E-02  0.49567E-02  0.55627E-02
  0.58823E-02  0.58867E-02  0.55880E-02  0.50237E-02  0.42565E-02  0.33892E-02
  0.11015E-02  0.19830E-02  0.28872E-02  0.37918E-02  0.46430E-02  0.53663E-02
  0.58861E-02  0.61375E-02  0.60772E-02  0.56971E-02  0.50341E-02  0.41612E-02
  0.31671E-02  0.21421E-02  0.11898E-02  0.55608E-03  0.77300E-03  0.11927E-02
  0.14343E-02  0.14552E-02  0.12734E-02  0.94567E-03  0.58633E-03  0.45993E-03
  0.66274E-03  0.85500E-03  0.89630E-03  0.80984E-03  0.74255E-03  0.80984E-03
  0.89630E-03  0.85500E-03  0.66274E-03  0.45993E-03  0.58633E-03  0.94567E-03
  0.12734E-02  0.14552E-02  0.14343E-02  0.11927E-02  0.77299E-03  0.55608E-03
  0.11898E-02  0.21421E-02  0.31671E-02  0.41612E-02  0.50341E-02  0.56972E-02
  0.60772E-02  0.61375E-02  0.58861E-02  0.53663E-02  0.46430E-02  0.37918E-02
  0.55917E-03  0.16065E-02  0.26708E-02  0.36973E-02  0.46277E-02  0.53920E-02
  0.59191E-02  0.61531E-02  0.60670E-02  0.56694E-02  0.50004E-02  0.41235E-02
  0.31169E-02  0.20706E-02  0.10964E-02  0.49044E-03  0.82589E-03  0.12813E-02
  0.15454E-02  0.15943E-02  0.14552E-02  0.11888E-02  0.89199E-03  0.70553E-03
  0.72609E-03  0.84246E-03  0.91989E-03  0.93379E-03  0.92802E-03  0.93379E-03
  0.91989E-03  0.84246E-03  0.72609E-03  0.70553E-03  0.89199E-03  0.11888E-02
  0.14552E-02  0.15943E-02  0.15454E-02  0.12813E-02  0.82589E-03  0.49044E-03
  0.10964E-02  0.20706E-02  0.31169E-02  0.41235E-02  0.50004E-02  0.56694E-02
  0.60670E-02  0.61531E-02  0.59191E-02  0.53920E-02  0.46277E-02  0.36973E-02
  0.19957E-03  0.10696E-02  0.22442E-02  0.33681E-02  0.43709E-02  0.51808E-02
  0.57314E-02  0.59786E-02  0.59106E-02  0.55439E-02  0.49140E-02  0.40723E-02
  0.30899E-02  0.20597E-02  0.10978E-02  0.47723E-03  0.77780E-03  0.12223E-02
  0.14854E-02  0.15454E-02  0.14343E-02  0.12160E-02  0.98218E-03  0.84269E-03
  0.85247E-03  0.94031E-03  0.10162E-02  0.10524E-02  0.10610E-02  0.10524E-02
  0.10162E-02  0.94031E-03  0.85247E-03  0.84269E-03  0.98218E-03  0.12160E-02
  0.14343E-02  0.15454E-02  0.14854E-02  0.12223E-02  0.77780E-03  0.47723E-03
  0.10978E-02  0.20597E-02  0.30899E-02  0.40723E-02  0.49140E-02  0.55439E-02
  0.59106E-02  0.59786E-02  0.57314E-02  0.51808E-02  0.43709E-02  0.33681E-02
  0.87233E-03  0.42736E-03  0.16632E-02  0.28591E-02  0.39241E-02  0.47875E-02
  0.53887E-02  0.56903E-02  0.56845E-02  0.53860E-02  0.48243E-02  0.40458E-02
  0.31220E-02  0.21480E-02  0.12331E-02  0.55239E-03  0.60199E-03  0.98081E-03
  0.12223E-02  0.12813E-02  0.11927E-02  0.10280E-02  0.88170E-03  0.84145E-03
  0.91036E-03  0.10112E-02  0.10847E-02  0.11201E-02  0.11293E-02  0.11201E-02
  0.10847E-02  0.10112E-02  0.91036E-03  0.84145E-03  0.88170E-03  0.10280E-02
  0.11927E-02  0.12813E-02  0.12223E-02  0.98081E-03  0.60199E-03  0.55239E-03
  0.12331E-02  0.21480E-02  0.31220E-02  0.40458E-02  0.48243E-02  0.53860E-02
  0.56845E-02  0.56903E-02  0.53887E-02  0.47875E-02  0.39241E-02  0.28591E-02
  0.16449E-02  0.38101E-03  0.99324E-03  0.22488E-02  0.33797E-02  0.43120E-02
  0.49873E-02  0.53700E-02  0.54501E-02  0.52384E-02  0.47625E-02  0.40708E-02
  0.32380E-02  0.23565E-02  0.15201E-02  0.82581E-03  0.47105E-03  0.60199E-03
  0.77780E-03  0.82589E-03  0.77299E-03  0.70672E-03  0.71898E-03  0.82528E-03
  0.96216E-03  0.10682E-02  0.11215E-02  0.11354E-02  0.11359E-02  0.11354E-02
  0.11215E-02  0.10682E-02  0.96216E-03  0.82528E-03  0.71898E-03  0.70672E-03
  0.77299E-03  0.82589E-03  0.77780E-03  0.60199E-03  0.47105E-03  0.82581E-03
  0.15201E-02  0.23565E-02  0.32380E-02  0.40708E-02  0.47625E-02  0.52384E-02
  0.54501E-02  0.53700E-02  0.49873E-02  0.43120E-02  0.33797E-02  0.22488E-02
  0.23516E-02  0.10485E-02  0.37851E-03  0.16571E-02  0.28511E-02  0.38536E-02