       #
       # Generated by the Wannier90 code http://www.wannier.org
       # On 10May2024 at 21:04:43 
       #
CRYSTAL
PRIMVEC
   2.7281430   0.0000000   0.0000000
   0.0000000   2.7281430   0.0000000
   0.0000000   0.0000000   3.7789840
CONVVEC
   2.7281430   0.0000000   0.0000000
   0.0000000   2.7281430   0.0000000
   0.0000000   0.0000000   3.7789840
PRIMCOORD
     2  1
Fe      0.0000000   0.0000000   0.0000000
Pt      1.3640715   1.3640715   1.8894920


BEGIN_BLOCK_DATAGRID_3D
3D_field
BEGIN_DATAGRID_3D_UNKNOWN
    54    54    80
   -2.829185   -2.829185   -3.873459
   5.3552437   0.0000000   0.0000000
   0.0000000   5.3552437   0.0000000
   0.0000000   0.0000000   7.4634934
  0.10574E-01  0.63147E-02  0.16711E-02  0.38491E-02  0.53976E-02  0.44971E-02
  0.21772E-02  0.47024E-03  0.23785E-02  0.36468E-02  0.43092E-02  0.44956E-02
  0.42968E-02  0.37936E-02  0.30781E-02  0.22477E-02  0.14049E-02  0.69235E-03
  0.52187E-03  0.87279E-03  0.11241E-02  0.10691E-02  0.60682E-03  0.89920E-03
  0.26257E-02  0.47513E-02  0.67492E-02  0.81427E-02  0.86372E-02  0.81427E-02
  0.67492E-02  0.47513E-02  0.26257E-02  0.89920E-03  0.60682E-03  0.10691E-02
  0.11241E-02  0.87279E-03  0.52187E-03  0.69235E-03  0.14049E-02  0.22477E-02
  0.30781E-02  0.37936E-02  0.42968E-02  0.44956E-02  0.43092E-02  0.36468E-02
  0.23785E-02  0.47024E-03  0.21772E-02  0.44971E-02  0.53976E-02  0.38491E-02
  0.11637E-01  0.79391E-02  0.33559E-02  0.30062E-02  0.44158E-02  0.38287E-02
  0.19318E-02  0.35691E-03  0.18456E-02  0.28480E-02  0.33512E-02  0.34623E-02
  0.32442E-02  0.27586E-02  0.20916E-02  0.13449E-02  0.66384E-03  0.53395E-03
  0.98125E-03  0.13779E-02  0.15626E-02  0.14184E-02  0.86495E-03  0.91077E-03
  0.26246E-02  0.47498E-02  0.66994E-02  0.80241E-02  0.84857E-02  0.80241E-02
  0.66994E-02  0.47498E-02  0.26246E-02  0.91077E-03  0.86495E-03  0.14184E-02
  0.15626E-02  0.13779E-02  0.98125E-03  0.53395E-03  0.66384E-03  0.13449E-02
  0.20916E-02  0.27586E-02  0.32442E-02  0.34623E-02  0.33512E-02  0.28480E-02
  0.18456E-02  0.35691E-03  0.19318E-02  0.38287E-02  0.44158E-02  0.30062E-02
  0.10648E-01  0.80409E-02  0.43370E-02  0.26138E-02  0.31106E-02  0.26417E-02
  0.12509E-02  0.41196E-03  0.14354E-02  0.20760E-02  0.23644E-02  0.23691E-02
  0.21175E-02  0.16532E-02  0.10613E-02  0.50287E-03  0.56273E-03  0.10749E-02
  0.15386E-02  0.18582E-02  0.19690E-02  0.17845E-02  0.12362E-02  0.79653E-03
  0.19913E-02  0.37410E-02  0.53180E-02  0.63511E-02  0.67004E-02  0.63511E-02
  0.53180E-02  0.37410E-02  0.19913E-02  0.79653E-03  0.12362E-02  0.17845E-02
  0.19690E-02  0.18582E-02  0.15386E-02  0.10749E-02  0.56273E-03  0.50287E-03
  0.10613E-02  0.16532E-02  0.21175E-02  0.23691E-02  0.23644E-02  0.20760E-02
  0.14354E-02  0.41195E-03  0.12509E-02  0.26417E-02  0.31106E-02  0.26138E-02
  0.78282E-02  0.64767E-02  0.40774E-02  0.23639E-02  0.19470E-02  0.14176E-02
  0.52833E-03  0.50855E-03  0.10297E-02  0.12895E-02  0.13525E-02  0.12454E-02
  0.96440E-03  0.55147E-03  0.29215E-03  0.70503E-03  0.12234E-02  0.16830E-02
  0.20357E-02  0.22504E-02  0.22900E-02  0.21006E-02  0.16374E-02  0.10215E-02
  0.11830E-02  0.22452E-02  0.32627E-02  0.38945E-02  0.40951E-02  0.38945E-02
  0.32627E-02  0.22452E-02  0.11830E-02  0.10215E-02  0.16374E-02  0.21006E-02
  0.22900E-02  0.22504E-02  0.20357E-02  0.16830E-02  0.12234E-02  0.70503E-03
  0.29216E-03  0.55147E-03  0.96440E-03  0.12454E-02  0.13525E-02  0.12895E-02
  0.10297E-02  0.50855E-03  0.52833E-03  0.14176E-02  0.19470E-02  0.23639E-02
  0.43117E-02  0.39790E-02  0.28497E-02  0.17577E-02  0.10695E-02  0.51271E-03
  0.26547E-03  0.52648E-03  0.61441E-03  0.54648E-03  0.40085E-03  0.19251E-03
  0.19423E-03  0.58593E-03  0.10372E-02  0.14848E-02  0.18877E-02  0.22113E-02
  0.24298E-02  0.25272E-02  0.24891E-02  0.22946E-02  0.19305E-02  0.14397E-02
  0.10571E-02  0.11895E-02  0.15810E-02  0.18299E-02  0.18967E-02  0.18299E-02
  0.15810E-02  0.11895E-02  0.10571E-02  0.14397E-02  0.19305E-02  0.22946E-02
  0.24891E-02  0.25272E-02  0.24298E-02  0.22113E-02  0.18877E-02  0.14848E-02
  0.10372E-02  0.58593E-03  0.19423E-03  0.19251E-03  0.40085E-03  0.54648E-03
  0.61441E-03  0.52648E-03  0.26547E-03  0.51271E-03  0.10695E-02  0.17577E-02
  0.15406E-02  0.17253E-02  0.14254E-02  0.91348E-03  0.38219E-03  0.18558E-03
  0.49218E-03  0.64591E-03  0.69388E-03  0.73292E-03  0.81268E-03  0.96933E-03
  0.12205E-02  0.15377E-02  0.18718E-02  0.21840E-02  0.24456E-02  0.26286E-02
  0.27111E-02  0.26854E-02  0.25537E-02  0.23214E-02  0.20035E-02  0.16390E-02
  0.13130E-02  0.11522E-02  0.11729E-02  0.12315E-02  0.12508E-02  0.12315E-02
  0.11729E-02  0.11522E-02  0.13130E-02  0.16390E-02  0.20035E-02  0.23214E-02
  0.25537E-02  0.26854E-02  0.27111E-02  0.26286E-02  0.24456E-02  0.21840E-02
  0.18718E-02  0.15377E-02  0.12205E-02  0.96933E-03  0.81268E-03  0.73292E-03
  0.69388E-03  0.64591E-03  0.49218E-03  0.18558E-03  0.38219E-03  0.91348E-03
  0.39848E-03  0.52748E-03  0.45077E-03  0.19109E-03  0.19764E-03  0.54972E-03
  0.85088E-03  0.11124E-02  0.13523E-02  0.15585E-02  0.17359E-02  0.19195E-02
  0.21310E-02  0.23568E-02  0.25695E-02  0.27493E-02  0.28781E-02  0.29309E-02
  0.28854E-02  0.27365E-02  0.24954E-02  0.21836E-02  0.18348E-02  0.14938E-02
  0.12099E-02  0.10364E-02  0.99755E-03  0.10322E-02  0.10545E-02  0.10322E-02
  0.99755E-03  0.10364E-02  0.12099E-02  0.14938E-02  0.18348E-02  0.21836E-02
  0.24954E-02  0.27365E-02  0.28854E-02  0.29309E-02  0.28781E-02  0.27493E-02
  0.25695E-02  0.23568E-02  0.21310E-02  0.19195E-02  0.17359E-02  0.15585E-02
  0.13523E-02  0.11124E-02  0.85088E-03  0.54972E-03  0.19764E-03  0.19109E-03
  0.62257E-03  0.45462E-03  0.32378E-03  0.34580E-03  0.59587E-03  0.95020E-03
  0.13472E-02  0.17445E-02  0.20913E-02  0.23578E-02  0.25576E-02  0.27253E-02
  0.28795E-02  0.30137E-02  0.31158E-02  0.31781E-02  0.31883E-02  0.31228E-02
  0.29590E-02  0.26919E-02  0.23359E-02  0.19214E-02  0.14936E-02  0.11049E-02
  0.78924E-03  0.54586E-03  0.36885E-03  0.27055E-03  0.24459E-03  0.27055E-03
  0.36885E-03  0.54586E-03  0.78924E-03  0.11049E-02  0.14936E-02  0.19214E-02
  0.23359E-02  0.26919E-02  0.29590E-02  0.31228E-02  0.31883E-02  0.31781E-02
  0.31158E-02  0.30137E-02  0.28795E-02  0.27253E-02  0.25576E-02  0.23578E-02
  0.20913E-02  0.17445E-02  0.13472E-02  0.95020E-03  0.59587E-03  0.34580E-03
  0.18318E-02  0.13029E-02  0.88353E-03  0.67395E-03  0.87422E-03  0.13450E-02
  0.18815E-02  0.23775E-02  0.27743E-02  0.30570E-02  0.32473E-02  0.33772E-02
  0.34650E-02  0.35131E-02  0.35188E-02  0.34784E-02  0.33806E-02  0.32040E-02
  0.29297E-02  0.25540E-02  0.20939E-02  0.15871E-02  0.11000E-02  0.74515E-03
  0.65138E-03  0.75084E-03  0.87193E-03  0.95105E-03  0.97775E-03  0.95105E-03
  0.87193E-03  0.75084E-03  0.65138E-03  0.74515E-03  0.11000E-02  0.15871E-02
  0.20939E-02  0.25540E-02  0.29297E-02  0.32040E-02  0.33806E-02  0.34784E-02
  0.35188E-02  0.35131E-02  0.34650E-02  0.33772E-02  0.32473E-02  0.30570E-02
  0.27743E-02  0.23775E-02  0.18815E-02  0.13450E-02  0.87422E-03  0.67395E-03
  0.31064E-02  0.22162E-02  0.14133E-02  0.87879E-03  0.10761E-02  0.17215E-02
  0.23917E-02  0.29577E-02  0.33785E-02  0.36557E-02  0.38161E-02  0.38919E-02
  0.39065E-02  0.38709E-02  0.37870E-02  0.36503E-02  0.34490E-02  0.31669E-02
  0.27919E-02  0.23255E-02  0.17897E-02  0.12386E-02  0.81123E-03  0.79548E-03
  0.11338E-02  0.15137E-02  0.18174E-02  0.20090E-02  0.20743E-02  0.20090E-02
  0.18174E-02  0.15137E-02  0.11338E-02  0.79548E-03  0.81123E-03  0.12386E-02
  0.17897E-02  0.23255E-02  0.27919E-02  0.31669E-02  0.34490E-02  0.36503E-02
  0.37870E-02  0.38709E-02  0.39065E-02  0.38919E-02  0.38161E-02  0.36557E-02
  0.33785E-02  0.29577E-02  0.23917E-02  0.17215E-02  0.10761E-02  0.87879E-03
  0.40128E-02  0.28270E-02  0.17025E-02  0.93121E-03  0.12650E-02  0.20988E-02
  0.28766E-02  0.34889E-02  0.39153E-02  0.41697E-02  0.42832E-02  0.42917E-02
  0.42250E-02  0.41000E-02  0.39216E-02  0.36858E-02  0.33841E-02  0.30078E-02
  0.25525E-02  0.20266E-02  0.14627E-02  0.95759E-03  0.79553E-03  0.11401E-02
  0.16518E-02  0.21352E-02  0.25180E-02  0.27622E-02  0.28460E-02  0.27622E-02
  0.25180E-02  0.21352E-02  0.16518E-02  0.11401E-02  0.79553E-03  0.95759E-03
  0.14627E-02  0.20266E-02  0.25525E-02  0.30078E-02  0.33841E-02  0.36858E-02
  0.39216E-02  0.41000E-02  0.42250E-02  0.42917E-02  0.42832E-02  0.41697E-02
  0.39153E-02  0.34889E-02  0.28766E-02  0.20988E-02  0.12650E-02  0.93121E-03
  0.44606E-02  0.30426E-02  0.16841E-02  0.85935E-03  0.15276E-02  0.25259E-02
  0.33733E-02  0.40013E-02  0.44073E-02  0.46159E-02  0.46645E-02  0.45931E-02
  0.44344E-02  0.42083E-02  0.39238E-02  0.35843E-02  0.31904E-02  0.27416E-02
  0.22397E-02  0.16999E-02  0.11785E-02  0.85441E-03  0.10100E-02  0.14903E-02
  0.20336E-02  0.25304E-02  0.29226E-02  0.31722E-02  0.32577E-02  0.31722E-02
  0.29226E-02  0.25304E-02  0.20336E-02  0.14903E-02  0.10100E-02  0.85441E-03
  0.11785E-02  0.16999E-02  0.22397E-02  0.27416E-02  0.31904E-02  0.35842E-02
  0.39238E-02  0.42083E-02  0.44344E-02  0.45931E-02  0.46645E-02  0.46159E-02
  0.44073E-02  0.40013E-02  0.33733E-02  0.25259E-02  0.15276E-02  0.85935E-03
  0.44892E-02  0.28884E-02  0.13731E-02  0.85883E-03  0.19559E-02  0.30611E-02
  0.39317E-02  0.45358E-02  0.48866E-02  0.50196E-02  0.49801E-02  0.48113E-02
  0.45457E-02  0.42053E-02  0.38066E-02  0.33657E-02  0.28959E-02  0.24046E-02
  0.18982E-02  0.14045E-02  0.10214E-02  0.96381E-03  0.12833E-02  0.17643E-02
  0.22660E-02  0.27183E-02  0.30732E-02  0.32976E-02  0.33741E-02  0.32976E-02
  0.30732E-02  0.27183E-02  0.22660E-02  0.17643E-02  0.12833E-02  0.96381E-03
  0.10214E-02  0.14045E-02  0.18982E-02  0.24046E-02  0.28959E-02  0.33657E-02
  0.38066E-02  0.42053E-02  0.45457E-02  0.48113E-02  0.49801E-02  0.50196E-02
  0.48866E-02  0.45358E-02  0.39317E-02  0.30611E-02  0.19559E-02  0.85883E-03
  0.41484E-02  0.24102E-02  0.84086E-03  0.12384E-02  0.25881E-02  0.37309E-02
  0.45786E-02  0.51216E-02  0.53845E-02  0.54122E-02  0.52568E-02  0.49653E-02
  0.45731E-02  0.41077E-02  0.35960E-02  0.30669E-02  0.25454E-02  0.20465E-02
  0.15860E-02  0.12138E-02  0.10503E-02  0.11881E-02  0.15296E-02  0.19433E-02
  0.23579E-02  0.27284E-02  0.30183E-02  0.32011E-02  0.32633E-02  0.32011E-02
  0.30183E-02  0.27284E-02  0.23579E-02  0.19433E-02  0.15296E-02  0.11881E-02
  0.10503E-02  0.12138E-02  0.15860E-02  0.20465E-02  0.25454E-02  0.30669E-02
  0.35960E-02  0.41077E-02  0.45731E-02  0.49653E-02  0.52568E-02  0.54122E-02
  0.53845E-02  0.51216E-02  0.45786E-02  0.37309E-02  0.25881E-02  0.12384E-02
  0.34840E-02  0.16580E-02  0.54606E-03  0.19823E-02  0.33928E-02  0.45119E-02
  0.52979E-02  0.57531E-02  0.59076E-02  0.58093E-02  0.55134E-02  0.50734E-02
  0.45349E-02  0.39382E-02  0.33225E-02  0.27273E-02  0.21862E-02  0.17256E-02
  0.13777E-02  0.11991E-02  0.12332E-02  0.14354E-02  0.17189E-02  0.20258E-02
  0.23247E-02  0.25910E-02  0.28007E-02  0.29339E-02  0.29795E-02  0.29339E-02
  0.28007E-02  0.25910E-02  0.23247E-02  0.20258E-02  0.17189E-02  0.14354E-02
  0.12332E-02  0.11991E-02  0.13777E-02  0.17256E-02  0.21862E-02  0.27273E-02
  0.33225E-02  0.39382E-02  0.45349E-02  0.50734E-02  0.55134E-02  0.58093E-02
  0.59076E-02  0.57531E-02  0.52979E-02  0.45119E-02  0.33928E-02  0.19823E-02
  0.25453E-02  0.72808E-03  0.13211E-02  0.29420E-02  0.43157E-02  0.53601E-02
  0.60506E-02  0.63969E-02  0.64300E-02  0.61945E-02  0.57450E-02  0.51420E-02
  0.44472E-02  0.37194E-02  0.30134E-02  0.23796E-02  0.18643E-02  0.15100E-02
  0.13467E-02  0.13604E-02  0.14879E-02  0.16636E-02  0.18498E-02  0.20315E-02
  0.22023E-02  0.23548E-02  0.24773E-02  0.25571E-02  0.25848E-02  0.25571E-02
  0.24773E-02  0.23548E-02  0.22023E-02  0.20315E-02  0.18498E-02  0.16636E-02
  0.14879E-02  0.13604E-02  0.13467E-02  0.15100E-02  0.18643E-02  0.23796E-02
  0.30134E-02  0.37194E-02  0.44472E-02  0.51420E-02  0.57450E-02  0.61945E-02
  0.64300E-02  0.63969E-02  0.60506E-02  0.53601E-02  0.43157E-02  0.29420E-02
  0.14247E-02  0.71667E-03  0.24252E-02  0.40070E-02  0.52938E-02  0.62284E-02
  0.67966E-02  0.70136E-02  0.69110E-02  0.65307E-02  0.59261E-02  0.51637E-02
  0.43195E-02  0.34710E-02  0.26926E-02  0.20560E-02  0.16319E-02  0.14617E-02
  0.14959E-02  0.16218E-02  0.17556E-02  0.18637E-02  0.19423E-02  0.19991E-02
  0.20428E-02  0.20794E-02  0.21104E-02  0.21324E-02  0.21406E-02  0.21324E-02
  0.21104E-02  0.20794E-02  0.20428E-02  0.19991E-02  0.19423E-02  0.18637E-02
  0.17556E-02  0.16218E-02  0.14959E-02  0.14617E-02  0.16319E-02  0.20560E-02
  0.26926E-02  0.34710E-02  0.43195E-02  0.51637E-02  0.59261E-02  0.65307E-02
  0.69110E-02  0.70136E-02  0.67966E-02  0.62284E-02  0.52938E-02  0.40070E-02
  0.49213E-03  0.18111E-02  0.35288E-02  0.50274E-02  0.62111E-02  0.70303E-02
  0.74730E-02  0.75549E-02  0.73092E-02  0.67808E-02  0.60287E-02  0.51256E-02
  0.41553E-02  0.32085E-02  0.23838E-02  0.17941E-02  0.15383E-02  0.15809E-02
  0.17499E-02  0.19110E-02  0.20111E-02  0.20433E-02  0.20205E-02  0.19603E-02
  0.18807E-02  0.17996E-02  0.17327E-02  0.16902E-02  0.16758E-02  0.16902E-02
  0.17327E-02  0.17996E-02  0.18807E-02  0.19603E-02  0.20205E-02  0.20433E-02
  0.20111E-02  0.19110E-02  0.17499E-02  0.15809E-02  0.15383E-02  0.17941E-02
  0.23838E-02  0.32085E-02  0.41553E-02  0.51256E-02  0.60287E-02  0.67808E-02
  0.73092E-02  0.75549E-02  0.74730E-02  0.70303E-02  0.62111E-02  0.50274E-02
  0.10850E-02  0.28058E-02  0.44295E-02  0.58185E-02  0.68971E-02  0.76185E-02
  0.79640E-02  0.79390E-02  0.75717E-02  0.69129E-02  0.60338E-02  0.50182E-02
  0.39551E-02  0.29429E-02  0.21089E-02  0.16258E-02  0.15838E-02  0.17944E-02
  0.20285E-02  0.21866E-02  0.22439E-02  0.22055E-02  0.20887E-02  0.19164E-02
  0.17152E-02  0.15153E-02  0.13465E-02  0.12342E-02  0.11949E-02  0.12342E-02
  0.13465E-02  0.15153E-02  0.17152E-02  0.19164E-02  0.20887E-02  0.22055E-02
  0.22439E-02  0.21866E-02  0.20285E-02  0.17944E-02  0.15838E-02  0.16258E-02
  0.21089E-02  0.29429E-02  0.39551E-02  0.50182E-02  0.60338E-02  0.69129E-02
  0.75717E-02  0.79390E-02  0.79640E-02  0.76185E-02  0.68971E-02  0.58185E-02
  0.19545E-02  0.35664E-02  0.50289E-02  0.62648E-02  0.72197E-02  0.78529E-02
  0.81365E-02  0.80573E-02  0.76260E-02  0.68883E-02  0.59252E-02  0.48353E-02
  0.37175E-02  0.26792E-02  0.18808E-02  0.15534E-02  0.17070E-02  0.20198E-02
  0.22792E-02  0.24224E-02  0.24391E-02  0.23354E-02  0.21289E-02  0.18493E-02
  0.15351E-02  0.12276E-02  0.96568E-03  0.78518E-03  0.71949E-03  0.78518E-03
  0.96568E-03  0.12276E-02  0.15351E-02  0.18493E-02  0.21289E-02  0.23354E-02
  0.24391E-02  0.24224E-02  0.22792E-02  0.20198E-02  0.17070E-02  0.15534E-02
  0.18808E-02  0.26792E-02  0.37175E-02  0.48353E-02  0.59252E-02  0.68883E-02
  0.76260E-02  0.80573E-02  0.81365E-02  0.78529E-02  0.72197E-02  0.62648E-02
  0.26463E-02  0.40139E-02  0.52379E-02  0.62845E-02  0.71086E-02  0.76635E-02
  0.79121E-02  0.78283E-02  0.74026E-02  0.66619E-02  0.56812E-02  0.45687E-02
  0.34392E-02  0.24177E-02  0.17010E-02  0.15468E-02  0.18396E-02  0.22054E-02
  0.24715E-02  0.25965E-02  0.25739E-02  0.24087E-02  0.21214E-02  0.17510E-02
  0.13457E-02  0.95232E-03  0.61298E-03  0.36645E-03  0.26644E-03  0.36645E-03
  0.61298E-03  0.95232E-03  0.13457E-02  0.17510E-02  0.21214E-02  0.24087E-02
  0.25739E-02  0.25965E-02  0.24715E-02  0.22054E-02  0.18396E-02  0.15468E-02
  0.17010E-02  0.24177E-02  0.34392E-02  0.45687E-02  0.56812E-02  0.66619E-02
  0.74026E-02  0.78282E-02  0.79121E-02  0.76635E-02  0.71086E-02  0.62845E-02
  0.26939E-02  0.36138E-02  0.45532E-02  0.55023E-02  0.63474E-02  0.69582E-02
  0.72594E-02  0.72300E-02  0.68713E-02  0.62018E-02  0.52792E-02  0.42077E-02
  0.31170E-02  0.21581E-02  0.15644E-02  0.15695E-02  0.19419E-02  0.23270E-02
  0.25875E-02  0.26897E-02  0.26278E-02  0.24095E-02  0.20607E-02  0.16220E-02
  0.11374E-02  0.66096E-03  0.32619E-03  0.36357E-03  0.44402E-03  0.36357E-03
  0.32620E-03  0.66097E-03  0.11374E-02  0.16220E-02  0.20607E-02  0.24095E-02
  0.26278E-02  0.26897E-02  0.25875E-02  0.23270E-02  0.19419E-02  0.15695E-02
  0.15644E-02  0.21581E-02  0.31170E-02  0.42077E-02  0.52792E-02  0.62018E-02
  0.68713E-02  0.72300E-02  0.72594E-02  0.69582E-02  0.63474E-02  0.55023E-02
  0.93423E-03  0.11031E-02  0.18149E-02  0.30235E-02  0.43726E-02  0.54684E-02
  0.61029E-02  0.62712E-02  0.60516E-02  0.55120E-02  0.47131E-02  0.37481E-02
  0.27529E-02  0.19054E-02  0.14660E-02  0.15948E-02  0.19956E-02  0.23723E-02
  0.26134E-02  0.26867E-02  0.25882E-02  0.23311E-02  0.19396E-02  0.14334E-02
  0.83498E-03  0.40572E-03  0.87291E-03  0.14131E-02  0.16251E-02  0.14131E-02
  0.87291E-03  0.40572E-03  0.83498E-03  0.14334E-02  0.19396E-02  0.23311E-02
  0.25882E-02  0.26867E-02  0.26134E-02  0.23723E-02  0.19956E-02  0.15948E-02
  0.14660E-02  0.19054E-02  0.27529E-02  0.37481E-02  0.47131E-02  0.55120E-02
  0.60516E-02  0.62712E-02  0.61029E-02  0.54684E-02  0.43726E-02  0.30235E-02
  0.38483E-02  0.47127E-02  0.40443E-02  0.20059E-02  0.62890E-03  0.28826E-02
  0.43370E-02  0.49672E-02  0.49981E-02  0.46377E-02  0.40067E-02  0.32018E-02
  0.23577E-02  0.16708E-02  0.14003E-02  0.16047E-02  0.19904E-02  0.23319E-02
  0.25374E-02  0.25755E-02  0.24453E-02  0.21620E-02  0.17304E-02  0.11192E-02
  0.41300E-03  0.10985E-02  0.23221E-02  0.33115E-02  0.36919E-02  0.33115E-02
  0.23221E-02  0.10985E-02  0.41300E-03  0.11192E-02  0.17304E-02  0.21620E-02
  0.24453E-02  0.25755E-02  0.25374E-02  0.23319E-02  0.19904E-02  0.16047E-02
  0.14003E-02  0.16708E-02  0.23577E-02  0.32018E-02  0.40067E-02  0.46377E-02
  0.49981E-02  0.49672E-02  0.43370E-02  0.28826E-02  0.62889E-03  0.20059E-02
  0.11153E-01  0.13132E-01  0.12300E-01  0.89971E-02  0.46031E-02  0.64263E-03
  0.20661E-02  0.34062E-02  0.37991E-02  0.36542E-02  0.32109E-02  0.25982E-02
  0.19509E-02  0.14675E-02  0.13591E-02  0.15898E-02  0.19234E-02  0.22032E-02
  0.23555E-02  0.23509E-02  0.21907E-02  0.18854E-02  0.14055E-02  0.65992E-03
  0.75349E-03  0.24168E-02  0.42851E-02  0.57744E-02  0.63451E-02  0.57744E-02
  0.42851E-02  0.24168E-02  0.75349E-03  0.65992E-03  0.14055E-02  0.18854E-02
  0.21907E-02  0.23509E-02  0.23555E-02  0.22032E-02  0.19234E-02  0.15898E-02
  0.13591E-02  0.14675E-02  0.19509E-02  0.25982E-02  0.32109E-02  0.36542E-02
  0.37991E-02  0.34062E-02  0.20661E-02  0.64263E-03  0.46031E-02  0.89971E-02
  0.17800E-01  0.20537E-01  0.19498E-01  0.15168E-01  0.93235E-02  0.39295E-02
  0.20425E-03  0.18473E-02  0.25884E-02  0.26479E-02  0.23853E-02  0.19756E-02
  0.15564E-02  0.13038E-02  0.13331E-02  0.15525E-02  0.18079E-02  0.20035E-02
  0.20847E-02  0.20258E-02  0.18289E-02  0.15013E-02  0.99086E-03  0.33630E-03
  0.15462E-02  0.36338E-02  0.59235E-02  0.77288E-02  0.84163E-02  0.77288E-02
  0.59235E-02  0.36338E-02  0.15462E-02  0.33630E-03  0.99086E-03  0.15013E-02
  0.18289E-02  0.20258E-02  0.20847E-02  0.20035E-02  0.18079E-02  0.15525E-02
  0.13331E-02  0.13038E-02  0.15564E-02  0.19756E-02  0.23853E-02  0.26479E-02
  0.25884E-02  0.18473E-02  0.20425E-03  0.39295E-02  0.93235E-02  0.15168E-01
  0.19163E-01  0.21863E-01  0.20859E-01  0.16617E-01  0.10820E-01  0.53763E-02
  0.14931E-02  0.68093E-03  0.15236E-02  0.16936E-02  0.15778E-02  0.13702E-02
  0.12014E-02  0.11830E-02  0.13159E-02  0.15068E-02  0.16768E-02  0.17776E-02
  0.17741E-02  0.16450E-02  0.13941E-02  0.10445E-02  0.59341E-03  0.61863E-03
  0.19889E-02  0.39890E-02  0.61243E-02  0.77651E-02  0.83803E-02  0.77651E-02
  0.61243E-02  0.39890E-02  0.19889E-02  0.61863E-03  0.59341E-03  0.10445E-02
  0.13941E-02  0.16450E-02  0.17741E-02  0.17776E-02  0.16768E-02  0.15068E-02
  0.13159E-02  0.11830E-02  0.12014E-02  0.13702E-02  0.15778E-02  0.16936E-02
  0.15236E-02  0.68093E-03  0.14931E-02  0.53763E-02  0.10820E-01  0.16617E-01
  0.12565E-01  0.14299E-01  0.13811E-01  0.11271E-01  0.76174E-02  0.40442E-02
  0.14153E-02  0.25026E-03  0.70950E-03  0.83107E-03  0.82009E-03  0.83088E-03
  0.92962E-03  0.11074E-02  0.13053E-02  0.14707E-02  0.15733E-02  0.15935E-02
  0.15100E-02  0.13026E-02  0.97257E-03  0.57890E-03  0.36196E-03  0.85154E-03
  0.18702E-02  0.31890E-02  0.44346E-02  0.52622E-02  0.55401E-02  0.52622E-02
  0.44346E-02  0.31890E-02  0.18702E-02  0.85154E-03  0.36196E-03  0.57890E-03
  0.97257E-03  0.13026E-02  0.15100E-02  0.15935E-02  0.15733E-02  0.14707E-02
  0.13053E-02  0.11074E-02  0.92962E-03  0.83088E-03  0.82009E-03  0.83106E-03
  0.70950E-03  0.25026E-03  0.14153E-02  0.40442E-02  0.76174E-02  0.11271E-01
  0.25838E-03  0.15855E-02  0.30444E-02  0.35082E-02  0.29097E-02  0.17474E-02
  0.69111E-03  0.25823E-03  0.25945E-03  0.18575E-03  0.30159E-03  0.54929E-03
  0.82015E-03  0.10813E-02  0.13017E-02  0.14571E-02  0.15340E-02  0.15213E-02
  0.14021E-02  0.11537E-02  0.76672E-03  0.28604E-03  0.31784E-03  0.91116E-03
  0.16459E-02  0.23547E-02  0.26589E-02  0.24049E-02  0.21204E-02  0.24049E-02
  0.26589E-02  0.23547E-02  0.16459E-02  0.91116E-03  0.31784E-03  0.28604E-03
  0.76672E-03  0.11537E-02  0.14021E-02  0.15213E-02  0.15340E-02  0.14572E-02
  0.13017E-02  0.10813E-02  0.82015E-03  0.54929E-03  0.30159E-03  0.18575E-03
  0.25946E-03  0.25823E-03  0.69111E-03  0.17474E-02  0.29097E-02  0.35082E-02
  0.12565E-01  0.14299E-01  0.13811E-01  0.11271E-01  0.76174E-02  0.40442E-02
  0.14153E-02  0.25026E-03  0.70950E-03  0.83106E-03  0.82009E-03  0.83088E-03
  0.92962E-03  0.11074E-02  0.13053E-02  0.14707E-02  0.15733E-02  0.15935E-02
  0.15100E-02  0.13026E-02  0.97256E-03  0.57890E-03  0.36196E-03  0.85154E-03
  0.18702E-02  0.31890E-02  0.44346E-02  0.52622E-02  0.55401E-02  0.52622E-02
  0.44346E-02  0.31890E-02  0.18702E-02  0.85154E-03  0.36196E-03  0.57890E-03
  0.97257E-03  0.13026E-02  0.15100E-02  0.15935E-02  0.15733E-02  0.14707E-02
  0.13053E-02  0.11074E-02  0.92962E-03  0.83088E-03  0.82009E-03  0.83106E-03
  0.70950E-03  0.25026E-03  0.14153E-02  0.40442E-02  0.76174E-02  0.11271E-01
  0.19163E-01  0.21863E-01  0.20859E-01  0.16617E-01  0.10820E-01  0.53763E-02
  0.14931E-02  0.68093E-03  0.15236E-02  0.16936E-02  0.15778E-02  0.13702E-02
  0.12014E-02  0.11830E-02  0.13159E-02  0.15068E-02  0.16768E-02  0.17776E-02
  0.17741E-02  0.16450E-02  0.13941E-02  0.10445E-02  0.59341E-03  0.61863E-03
  0.19889E-02  0.39890E-02  0.61243E-02  0.77651E-02  0.83803E-02  0.77651E-02
  0.61243E-02  0.39890E-02  0.19889E-02  0.61863E-03  0.59341E-03  0.10445E-02
  0.13941E-02  0.16450E-02  0.17741E-02  0.17776E-02  0.16768E-02  0.15068E-02
  0.13159E-02  0.11830E-02  0.12014E-02  0.13702E-02  0.15778E-02  0.16936E-02
  0.15236E-02  0.68093E-03  0.14931E-02  0.53763E-02  0.10820E-01  0.16617E-01
  0.17800E-01  0.20537E-01  0.19498E-01  0.15168E-01  0.93235E-02  0.39295E-02
  0.20426E-03  0.18473E-02  0.25884E-02  0.26479E-02  0.23853E-02  0.19756E-02
  0.15564E-02  0.13038E-02  0.13331E-02  0.15525E-02  0.18079E-02  0.20035E-02
  0.20847E-02  0.20258E-02  0.18289E-02  0.15013E-02  0.99086E-03  0.33630E-03
  0.15462E-02  0.36338E-02  0.59235E-02  0.77288E-02  0.84163E-02  0.77288E-02
  0.59235E-02  0.36338E-02  0.15462E-02  0.33630E-03  0.99086E-03  0.15013E-02
  0.18289E-02  0.20258E-02  0.20847E-02  0.20035E-02  0.18079E-02  0.15525E-02
  0.13331E-02  0.13038E-02  0.15564E-02  0.19756E-02  0.23853E-02  0.26479E-02
  0.25884E-02  0.18473E-02  0.20425E-03  0.39295E-02  0.93235E-02  0.15168E-01
  0.11153E-01  0.13132E-01  0.12300E-01  0.89971E-02  0.46031E-02  0.64263E-03
  0.20661E-02  0.34062E-02  0.37991E-02  0.36542E-02  0.32109E-02  0.25982E-02
  0.19509E-02  0.14675E-02  0.13591E-02  0.15898E-02  0.19234E-02  0.22032E-02
  0.23555E-02  0.23509E-02  0.21907E-02  0.18854E-02  0.14055E-02  0.65992E-03
  0.75349E-03  0.24168E-02  0.42851E-02  0.57744E-02  0.63451E-02  0.57744E-02
  0.42851E-02  0.24168E-02  0.75349E-03  0.65992E-03  0.14055E-02  0.18854E-02
  0.21907E-02  0.23509E-02  0.23555E-02  0.22032E-02  0.19234E-02  0.15898E-02
  0.13591E-02  0.14675E-02  0.19509E-02  0.25982E-02  0.32109E-02  0.36542E-02
  0.37991E-02  0.34062E-02  0.20661E-02  0.64263E-03  0.46031E-02  0.89971E-02
  0.38483E-02  0.47127E-02  0.40443E-02  0.20059E-02  0.62889E-03  0.28826E-02
  0.43370E-02  0.49672E-02  0.49981E-02  0.46377E-02  0.40067E-02  0.32018E-02
  0.23577E-02  0.16708E-02  0.14003E-02  0.16047E-02  0.19904E-02  0.23319E-02
  0.25374E-02  0.25755E-02  0.24453E-02  0.21620E-02  0.17304E-02  0.11192E-02
  0.41300E-03  0.10985E-02  0.23221E-02  0.33115E-02  0.36919E-02  0.33115E-02
  0.23221E-02  0.10985E-02  0.41300E-03  0.11192E-02  0.17304E-02  0.21620E-02
  0.24453E-02  0.25755E-02  0.25374E-02  0.23319E-02  0.19904E-02  0.16047E-02
  0.14003E-02  0.16708E-02  0.23577E-02  0.32018E-02  0.40067E-02  0.46377E-02
  0.49981E-02  0.49672E-02  0.43370E-02  0.28826E-02  0.62889E-03  0.20059E-02
  0.93423E-03  0.11031E-02  0.18149E-02  0.30235E-02  0.43726E-02  0.54684E-02
  0.61029E-02  0.62712E-02  0.60516E-02  0.55120E-02  0.47131E-02  0.37481E-02
  0.27529E-02  0.19054E-02  0.14660E-02  0.15948E-02  0.19956E-02  0.23723E-02
  0.26134E-02  0.26867E-02  0.25882E-02  0.23311E-02  0.19396E-02  0.14334E-02
  0.83498E-03  0.40572E-03  0.87291E-03  0.14131E-02  0.16251E-02  0.14131E-02
  0.87291E-03  0.40572E-03  0.83498E-03  0.14334E-02  0.19396E-02  0.23311E-02
  0.25882E-02  0.26867E-02  0.26134E-02  0.23723E-02  0.19956E-02  0.15948E-02
  0.14660E-02  0.19054E-02  0.27529E-02  0.37481E-02  0.47131E-02  0.55120E-02
  0.60516E-02  0.62712E-02  0.61029E-02  0.54684E-02  0.43726E-02  0.30235E-02
  0.26939E-02  0.36138E-02  0.45532E-02  0.55023E-02  0.63474E-02  0.69582E-02
  0.72594E-02  0.72300E-02  0.68713E-02  0.62018E-02  0.52792E-02  0.42077E-02
  0.31170E-02  0.21581E-02  0.15644E-02  0.15695E-02  0.19419E-02  0.23270E-02
  0.25875E-02  0.26897E-02  0.26278E-02  0.24095E-02  0.20607E-02  0.16220E-02
  0.11374E-02  0.66096E-03  0.32619E-03  0.36357E-03  0.44402E-03  0.36357E-03
  0.32619E-03  0.66096E-03  0.11374E-02  0.16220E-02  0.20607E-02  0.24095E-02
  0.26278E-02  0.26897E-02  0.25875E-02  0.23270E-02  0.19419E-02  0.15695E-02
  0.15644E-02  0.21581E-02  0.31170E-02  0.42077E-02  0.52792E-02  0.62018E-02
  0.68713E-02  0.72300E-02  0.72594E-02  0.69582E-02  0.63474E-02  0.55023E-02
  0.26463E-02  0.40139E-02  0.52379E-02  0.62845E-02  0.71086E-02  0.76635E-02
  0.79121E-02  0.78282E-02  0.74026E-02  0.66619E-02  0.56812E-02  0.45686E-02
  0.34392E-02  0.24177E-02  0.17010E-02  0.15468E-02  0.18396E-02  0.22054E-02
  0.24715E-02  0.25965E-02  0.25739E-02  0.24087E-02  0.21214E-02  0.17510E-02
  0.13457E-02  0.95232E-03  0.61298E-03  0.36645E-03  0.26644E-03  0.36645E-03
  0.61298E-03  0.95232E-03  0.13457E-02  0.17510E-02  0.21214E-02  0.24087E-02
  0.25739E-02  0.25965E-02  0.24715E-02  0.22054E-02  0.18396E-02  0.15468E-02
  0.17010E-02  0.24177E-02  0.34392E-02  0.45686E-02  0.56812E-02  0.66619E-02
  0.74026E-02  0.78282E-02  0.79121E-02  0.76635E-02  0.71086E-02  0.62845E-02
  0.19545E-02  0.35664E-02  0.50289E-02  0.62648E-02  0.72197E-02  0.78529E-02
  0.81365E-02  0.80573E-02  0.76260E-02  0.68883E-02  0.59252E-02  0.48353E-02
  0.37175E-02  0.26792E-02  0.18808E-02  0.15533E-02  0.17070E-02  0.20198E-02
  0.22792E-02  0.24224E-02  0.24391E-02  0.23354E-02  0.21289E-02  0.18493E-02
  0.15351E-02  0.12276E-02  0.96568E-03  0.78517E-03  0.71949E-03  0.78517E-03
  0.96568E-03  0.12276E-02  0.15351E-02  0.18493E-02  0.21289E-02  0.23354E-02
  0.24391E-02  0.24224E-02  0.22792E-02  0.20198E-02  0.17070E-02  0.15533E-02
  0.18808E-02  0.26792E-02  0.37175E-02  0.48353E-02  0.59252E-02  0.68883E-02
  0.76260E-02  0.80573E-02  0.81365E-02  0.78529E-02  0.72197E-02  0.62648E-02
  0.10850E-02  0.28058E-02  0.44295E-02  0.58185E-02  0.68971E-02  0.76185E-02
  0.79640E-02  0.79390E-02  0.75717E-02  0.69128E-02  0.60338E-02  0.50182E-02
  0.39551E-02  0.29429E-02  0.21089E-02  0.16258E-02  0.15838E-02  0.17944E-02
  0.20285E-02  0.21866E-02  0.22439E-02  0.22055E-02  0.20887E-02  0.19164E-02
  0.17152E-02  0.15153E-02  0.13465E-02  0.12342E-02  0.11949E-02  0.12342E-02
  0.13465E-02  0.15153E-02  0.17152E-02  0.19164E-02  0.20887E-02  0.22055E-02
  0.22439E-02  0.21866E-02  0.20285E-02  0.17944E-02  0.15838E-02  0.16258E-02
  0.21089E-02  0.29429E-02  0.39551E-02  0.50182E-02  0.60338E-02  0.69129E-02
  0.75717E-02  0.79390E-02  0.79640E-02  0.76185E-02  0.68971E-02  0.58185E-02
  0.49213E-03  0.18111E-02  0.35288E-02  0.50274E-02  0.62111E-02  0.70303E-02
  0.74730E-02  0.75549E-02  0.73092E-02  0.67808E-02  0.60287E-02  0.51256E-02
  0.41553E-02  0.32085E-02  0.23838E-02  0.17941E-02  0.15383E-02  0.15809E-02
  0.17499E-02  0.19110E-02  0.20111E-02  0.20433E-02  0.20205E-02  0.19603E-02
  0.18807E-02  0.17996E-02  0.17327E-02  0.16902E-02  0.16758E-02  0.16902E-02
  0.17327E-02  0.17996E-02  0.18807E-02  0.19603E-02  0.20205E-02  0.20433E-02
  0.20111E-02  0.19110E-02  0.17499E-02  0.15809E-02  0.15383E-02  0.17941E-02
  0.23838E-02  0.32085E-02  0.41553E-02  0.51256E-02  0.60287E-02  0.67808E-02
  0.73092E-02  0.75549E-02  0.74730E-02  0.70303E-02  0.62111E-02  0.50274E-02
  0.14247E-02  0.71667E-03  0.24252E-02  0.40070E-02  0.52938E-02  0.62284E-02
  0.67966E-02  0.70136E-02  0.69110E-02  0.65307E-02  0.59261E-02  0.51637E-02
  0.43195E-02  0.34710E-02  0.26926E-02  0.20560E-02  0.16319E-02  0.14617E-02
  0.14959E-02  0.16218E-02  0.17556E-02  0.18637E-02  0.19423E-02  0.19991E-02
  0.20428E-02  0.20794E-02  0.21104E-02  0.21324E-02  0.21406E-02  0.21324E-02
  0.21104E-02  0.20794E-02  0.20428E-02  0.19991E-02  0.19423E-02  0.18637E-02
  0.17556E-02  0.16218E-02  0.14959E-02  0.14617E-02  0.16319E-02  0.20560E-02
  0.26926E-02  0.34710E-02  0.43195E-02  0.51637E-02  0.59261E-02  0.65307E-02
  0.69110E-02  0.70136E-02  0.67966E-02  0.62284E-02  0.52938E-02  0.40070E-02
  0.25453E-02  0.72808E-03  0.13211E-02  0.29420E-02  0.43157E-02  0.53601E-02