       #
       # Generated by the Wannier90 code http://www.wannier.org
       # On 10May2024 at 21:04:43 
       #
CRYSTAL
PRIMVEC
   2.7281430   0.0000000   0.0000000
   0.0000000   2.7281430   0.0000000
   0.0000000   0.0000000   3.7789840
CONVVEC
   2.7281430   0.0000000   0.0000000
   0.0000000   2.7281430   0.0000000
   0.0000000   0.0000000   3.7789840
PRIMCOORD
     2  1
Fe      0.0000000   0.0000000   0.0000000
Pt      1.3640715   1.3640715   1.8894920


BEGIN_BLOCK_DATAGRID_3D
3D_field
BEGIN_DATAGRID_3D_UNKNOWN
    54    54    80
   -2.829185   -2.829185   -3.873459
   5.3552437   0.0000000   0.0000000
   0.0000000   5.3552437   0.0000000
   0.0000000   0.0000000   7.4634934
  0.10892E-01  0.82370E-02  0.43854E-02  0.17487E-02  0.19184E-02  0.17384E-02
  0.91856E-03  0.34314E-03  0.45561E-03  0.50495E-03  0.47418E-03  0.46067E-03
  0.54379E-03  0.75944E-03  0.10475E-02  0.13365E-02  0.15890E-02  0.17884E-02
  0.19133E-02  0.19259E-02  0.17823E-02  0.14556E-02  0.96908E-03  0.68154E-03
  0.13878E-02  0.24632E-02  0.34372E-02  0.41117E-02  0.44228E-02  0.42948E-02
  0.36352E-02  0.25190E-02  0.12733E-02  0.61973E-03  0.10971E-02  0.15201E-02
  0.16968E-02  0.16831E-02  0.15589E-02  0.14016E-02  0.12695E-02  0.11964E-02
  0.11964E-02  0.12695E-02  0.14016E-02  0.15589E-02  0.16831E-02  0.16968E-02
  0.15201E-02  0.10971E-02  0.61973E-03  0.12733E-02  0.25190E-02  0.36352E-02
  0.82370E-02  0.48754E-02  0.10802E-02  0.26630E-02  0.35900E-02  0.27860E-02
  0.13454E-02  0.36098E-03  0.47997E-03  0.52527E-03  0.45650E-03  0.45942E-03
  0.63470E-03  0.94553E-03  0.13016E-02  0.16373E-02  0.19219E-02  0.21406E-02
  0.22719E-02  0.22778E-02  0.21114E-02  0.17407E-02  0.11872E-02  0.75078E-03
  0.13082E-02  0.23180E-02  0.32386E-02  0.39341E-02  0.43751E-02  0.44107E-02
  0.38447E-02  0.27244E-02  0.14263E-02  0.71074E-03  0.11246E-02  0.15186E-02
  0.16608E-02  0.16098E-02  0.14519E-02  0.12715E-02  0.11298E-02  0.10554E-02
  0.10554E-02  0.11298E-02  0.12715E-02  0.14519E-02  0.16098E-02  0.16608E-02
  0.15186E-02  0.11246E-02  0.71073E-03  0.14263E-02  0.27244E-02  0.38447E-02
  0.43854E-02  0.10802E-02  0.28459E-02  0.49485E-02  0.49114E-02  0.33316E-02
  0.14380E-02  0.28337E-03  0.50118E-03  0.50853E-03  0.39443E-03  0.43999E-03
  0.71646E-03  0.11010E-02  0.15016E-02  0.18657E-02  0.21699E-02  0.24003E-02
  0.25360E-02  0.25427E-02  0.23751E-02  0.19985E-02  0.14239E-02  0.81371E-03
  0.93213E-03  0.17107E-02  0.24739E-02  0.31296E-02  0.36579E-02  0.38318E-02
  0.33938E-02  0.23872E-02  0.12232E-02  0.75587E-03  0.11872E-02  0.14982E-02
  0.15605E-02  0.14443E-02  0.12406E-02  0.10368E-02  0.89159E-03  0.82190E-03
  0.82190E-03  0.89159E-03  0.10368E-02  0.12406E-02  0.14443E-02  0.15605E-02
  0.14982E-02  0.11872E-02  0.75587E-03  0.12232E-02  0.23872E-02  0.33938E-02
  0.17487E-02  0.26630E-02  0.49485E-02  0.58611E-02  0.49644E-02  0.29952E-02
  0.10758E-02  0.21156E-03  0.53055E-03  0.45747E-03  0.29894E-03  0.42183E-03
  0.78775E-03  0.12214E-02  0.16454E-02  0.20197E-02  0.23276E-02  0.25568E-02
  0.26903E-02  0.27022E-02  0.25539E-02  0.22099E-02  0.16718E-02  0.10145E-02
  0.54827E-03  0.87780E-03  0.14425E-02  0.20168E-02  0.25391E-02  0.27505E-02
  0.24191E-02  0.16227E-02  0.84781E-03  0.93020E-03  0.13290E-02  0.14993E-02
  0.14398E-02  0.12322E-02  0.97125E-03  0.74865E-03  0.62096E-03  0.57748E-03
  0.57748E-03  0.62096E-03  0.74865E-03  0.97125E-03  0.12322E-02  0.14398E-02
  0.14993E-02  0.13290E-02  0.93020E-03  0.84780E-03  0.16227E-02  0.24191E-02
  0.19184E-02  0.35900E-02  0.49114E-02  0.49644E-02  0.37287E-02  0.19223E-02
  0.40751E-03  0.40656E-03  0.56237E-03  0.39144E-03  0.19526E-03  0.42219E-03
  0.84598E-03  0.13020E-02  0.17294E-02  0.20984E-02  0.23974E-02  0.26159E-02
  0.27426E-02  0.27621E-02  0.26446E-02  0.23563E-02  0.18945E-02  0.13118E-02
  0.70499E-03  0.24989E-03  0.49748E-03  0.97281E-03  0.13923E-02  0.15493E-02
  0.13265E-02  0.92285E-03  0.92733E-03  0.12949E-02  0.15325E-02  0.15287E-02
  0.13300E-02  0.10208E-02  0.70104E-03  0.48877E-03  0.45639E-03  0.49672E-03
  0.49672E-03  0.45639E-03  0.48877E-03  0.70104E-03  0.10208E-02  0.13300E-02
  0.15287E-02  0.15325E-02  0.12949E-02  0.92733E-03  0.92284E-03  0.13265E-02
  0.17384E-02  0.27860E-02  0.33316E-02  0.29952E-02  0.19223E-02  0.66066E-03
  0.25270E-03  0.61726E-03  0.56749E-03  0.32732E-03  0.13471E-03  0.45617E-03
  0.89665E-03  0.13449E-02  0.17531E-02  0.21021E-02  0.23834E-02  0.25858E-02
  0.27017E-02  0.27246E-02  0.26341E-02  0.24019E-02  0.20267E-02  0.15569E-02
  0.10736E-02  0.66190E-03  0.43640E-03  0.52862E-03  0.74036E-03  0.87147E-03
  0.94209E-03  0.11297E-02  0.14391E-02  0.16799E-02  0.17256E-02  0.15633E-02
  0.12452E-02  0.85115E-03  0.48953E-03  0.36506E-03  0.50581E-03  0.62607E-03
  0.62607E-03  0.50581E-03  0.36506E-03  0.48953E-03  0.85115E-03  0.12452E-02
  0.15633E-02  0.17256E-02  0.16799E-02  0.14391E-02  0.11297E-02  0.94208E-03
  0.91856E-03  0.13454E-02  0.14380E-02  0.10758E-02  0.40751E-03  0.25270E-03
  0.63088E-03  0.68219E-03  0.51764E-03  0.26770E-03  0.18970E-03  0.53408E-03
  0.95354E-03  0.13630E-02  0.17279E-02  0.20398E-02  0.22907E-02  0.24659E-02
  0.25586E-02  0.25690E-02  0.24874E-02  0.22963E-02  0.19997E-02  0.16418E-02
  0.12918E-02  0.10170E-02  0.87007E-03  0.87001E-03  0.98432E-03  0.11680E-02
  0.14019E-02  0.16601E-02  0.18724E-02  0.19537E-02  0.18564E-02  0.15878E-02
  0.11968E-02  0.75569E-03  0.37516E-03  0.35312E-03  0.58236E-03  0.73159E-03
  0.73159E-03  0.58236E-03  0.35312E-03  0.37516E-03  0.75569E-03  0.11968E-02
  0.15878E-02  0.18564E-02  0.19537E-02  0.18724E-02  0.16601E-02  0.14019E-02
  0.34315E-03  0.36098E-03  0.28337E-03  0.21156E-03  0.40656E-03  0.61726E-03
  0.68219E-03  0.59354E-03  0.41244E-03  0.22707E-03  0.31519E-03  0.64754E-03
  0.10207E-02  0.13676E-02  0.16684E-02  0.19233E-02  0.21226E-02  0.22482E-02
  0.22945E-02  0.22691E-02  0.21745E-02  0.20068E-02  0.17767E-02  0.15217E-02
  0.12920E-02  0.11325E-02  0.10758E-02  0.11344E-02  0.12939E-02  0.15193E-02
  0.17645E-02  0.19775E-02  0.21035E-02  0.20948E-02  0.19281E-02  0.16167E-02
  0.12065E-02  0.75871E-03  0.35531E-03  0.27310E-03  0.49956E-03  0.64864E-03
  0.64864E-03  0.49956E-03  0.27310E-03  0.35531E-03  0.75871E-03  0.12065E-02
  0.16167E-02  0.19281E-02  0.20948E-02  0.21035E-02  0.19775E-02  0.17645E-02
  0.45561E-03  0.47997E-03  0.50118E-03  0.53055E-03  0.56237E-03  0.56749E-03
  0.51764E-03  0.41243E-03  0.28689E-03  0.26630E-03  0.46898E-03  0.77283E-03
  0.10825E-02  0.13519E-02  0.15733E-02  0.17509E-02  0.18739E-02  0.19247E-02
  0.19022E-02  0.18224E-02  0.17001E-02  0.15431E-02  0.13667E-02  0.11995E-02
  0.10729E-02  0.10122E-02  0.10369E-02  0.11566E-02  0.13605E-02  0.16126E-02
  0.18627E-02  0.20615E-02  0.21665E-02  0.21442E-02  0.19797E-02  0.16880E-02
  0.13108E-02  0.89900E-03  0.50075E-03  0.18012E-03  0.18700E-03  0.30888E-03
  0.30888E-03  0.18700E-03  0.18012E-03  0.50075E-03  0.89900E-03  0.13108E-02
  0.16880E-02  0.19797E-02  0.21442E-02  0.21665E-02  0.20615E-02  0.18627E-02
  0.50495E-03  0.52527E-03  0.50853E-03  0.45747E-03  0.39144E-03  0.32732E-03
  0.26769E-03  0.22707E-03  0.26630E-03  0.41582E-03  0.63823E-03  0.88707E-03
  0.11156E-02  0.12949E-02  0.14232E-02  0.15051E-02  0.15326E-02  0.14939E-02
  0.13938E-02  0.12551E-02  0.11007E-02  0.94645E-03  0.80881E-03  0.70838E-03
  0.66237E-03  0.68089E-03  0.77274E-03  0.94513E-03  0.11900E-02  0.14753E-02
  0.17554E-02  0.19862E-02  0.21307E-02  0.21599E-02  0.20619E-02  0.18507E-02
  0.15618E-02  0.12377E-02  0.91733E-03  0.63592E-03  0.42603E-03  0.31378E-03
  0.31378E-03  0.42603E-03  0.63592E-03  0.91733E-03  0.12377E-02  0.15618E-02
  0.18507E-02  0.20619E-02  0.21599E-02  0.21307E-02  0.19862E-02  0.17554E-02
  0.47418E-03  0.45650E-03  0.39443E-03  0.29894E-03  0.19526E-03  0.13470E-03
  0.18970E-03  0.31519E-03  0.46898E-03  0.63823E-03  0.81331E-03  0.97732E-03
  0.11055E-02  0.11800E-02  0.12001E-02  0.11723E-02  0.10961E-02  0.96811E-03
  0.79726E-03  0.60753E-03  0.42716E-03  0.28573E-03  0.22246E-03  0.24105E-03
  0.28216E-03  0.32325E-03  0.40323E-03  0.57816E-03  0.85250E-03  0.11861E-02
  0.15290E-02  0.18362E-02  0.20709E-02  0.22063E-02  0.22320E-02  0.21584E-02
  0.20110E-02  0.18210E-02  0.16196E-02  0.14378E-02  0.13023E-02  0.12308E-02
  0.12308E-02  0.13023E-02  0.14378E-02  0.16196E-02  0.18210E-02  0.20110E-02
  0.21584E-02  0.22320E-02  0.22063E-02  0.20709E-02  0.18362E-02  0.15290E-02
  0.46068E-03  0.45942E-03  0.43999E-03  0.42182E-03  0.42219E-03  0.45617E-03
  0.53408E-03  0.64754E-03  0.77282E-03  0.88707E-03  0.97732E-03  0.10350E-02
  0.10476E-02  0.10041E-02  0.90550E-03  0.76315E-03  0.58738E-03  0.38610E-03
  0.18841E-03  0.17822E-03  0.36141E-03  0.54069E-03  0.67979E-03  0.76177E-03
  0.76996E-03  0.69128E-03  0.53127E-03  0.37097E-03  0.47565E-03  0.83809E-03
  0.12703E-02  0.16929E-02  0.20614E-02  0.23492E-02  0.25460E-02  0.26554E-02
  0.26895E-02  0.26660E-02  0.26078E-02  0.25407E-02  0.24866E-02  0.24576E-02
  0.24576E-02  0.24866E-02  0.25407E-02  0.26078E-02  0.26660E-02  0.26895E-02
  0.26554E-02  0.25460E-02  0.23492E-02  0.20614E-02  0.16929E-02  0.12703E-02
  0.54379E-03  0.63470E-03  0.71646E-03  0.78775E-03  0.84598E-03  0.89665E-03
  0.95354E-03  0.10207E-02  0.10825E-02  0.11156E-02  0.11055E-02  0.10476E-02
  0.93772E-03  0.77211E-03  0.55600E-03  0.31037E-03  0.12383E-03  0.30351E-03
  0.57591E-03  0.84534E-03  0.10884E-02  0.12874E-02  0.14288E-02  0.14983E-02
  0.14761E-02  0.13427E-02  0.10905E-02  0.73671E-03  0.38274E-03  0.52178E-03
  0.10444E-02  0.16129E-02  0.21522E-02  0.26307E-02  0.30343E-02  0.33574E-02
  0.35990E-02  0.37652E-02  0.38704E-02  0.39328E-02  0.39678E-02  0.39838E-02
  0.39838E-02  0.39678E-02  0.39328E-02  0.38704E-02  0.37652E-02  0.35990E-02
  0.33574E-02  0.30343E-02  0.26307E-02  0.21522E-02  0.16129E-02  0.10444E-02
  0.75945E-03  0.94553E-03  0.11010E-02  0.12214E-02  0.13020E-02  0.13449E-02
  0.13630E-02  0.13676E-02  0.13519E-02  0.12949E-02  0.11800E-02  0.10041E-02
  0.77211E-03  0.48964E-03  0.16882E-03  0.20306E-03  0.55872E-03  0.90790E-03
  0.12384E-02  0.15420E-02  0.18063E-02  0.20172E-02  0.21620E-02  0.22245E-02
  0.21812E-02  0.20078E-02  0.16939E-02  0.12499E-02  0.71502E-03  0.36647E-03
  0.88025E-03  0.16101E-02  0.23478E-02  0.30476E-02  0.36861E-02  0.42453E-02
  0.47127E-02  0.50849E-02  0.53680E-02  0.55702E-02  0.56986E-02  0.57602E-02
  0.57602E-02  0.56986E-02  0.55702E-02  0.53680E-02  0.50849E-02  0.47127E-02
  0.42453E-02  0.36861E-02  0.30476E-02  0.23478E-02  0.16101E-02  0.88025E-03
  0.10475E-02  0.13016E-02  0.15016E-02  0.16454E-02  0.17294E-02  0.17531E-02
  0.17279E-02  0.16684E-02  0.15733E-02  0.14232E-02  0.12001E-02  0.90550E-03
  0.55600E-03  0.16882E-03  0.25311E-03  0.68434E-03  0.11100E-02  0.15100E-02
  0.18755E-02  0.22027E-02  0.24843E-02  0.27080E-02  0.28600E-02  0.29215E-02
  0.28644E-02  0.26598E-02  0.22941E-02  0.17753E-02  0.11318E-02  0.49739E-03
  0.78710E-03  0.16721E-02  0.26245E-02  0.35674E-02  0.44612E-02  0.52728E-02
  0.59778E-02  0.65651E-02  0.70322E-02  0.73764E-02  0.75973E-02  0.77027E-02
  0.77027E-02  0.75973E-02  0.73764E-02  0.70322E-02  0.65651E-02  0.59778E-02
  0.52728E-02  0.44612E-02  0.35674E-02  0.26245E-02  0.16721E-02  0.78710E-03
  0.13365E-02  0.16373E-02  0.18657E-02  0.20197E-02  0.20984E-02  0.21021E-02
  0.20398E-02  0.19233E-02  0.17509E-02  0.15051E-02  0.11723E-02  0.76315E-03
  0.31037E-03  0.20306E-03  0.68434E-03  0.11750E-02  0.16457E-02  0.20781E-02
  0.24673E-02  0.28156E-02  0.31169E-02  0.33558E-02  0.35149E-02  0.35740E-02
  0.35038E-02  0.32718E-02  0.28601E-02  0.22731E-02  0.15341E-02  0.73799E-03
  0.76507E-03  0.17861E-02  0.29573E-02  0.41503E-02  0.53062E-02  0.63753E-02
  0.73202E-02  0.81216E-02  0.87687E-02  0.92499E-02  0.95592E-02  0.97064E-02
  0.97064E-02  0.95592E-02  0.92499E-02  0.87687E-02  0.81216E-02  0.73202E-02
  0.63753E-02  0.53062E-02  0.41503E-02  0.29573E-02  0.17861E-02  0.76507E-03
  0.15890E-02  0.19219E-02  0.21699E-02  0.23276E-02  0.23974E-02  0.23834E-02
  0.22907E-02  0.21226E-02  0.18739E-02  0.15326E-02  0.10961E-02  0.58738E-03
  0.12384E-03  0.55872E-03  0.11100E-02  0.16457E-02  0.21451E-02  0.25965E-02
  0.30038E-02  0.33726E-02  0.36921E-02  0.39388E-02  0.40929E-02  0.41387E-02
  0.40517E-02  0.37981E-02  0.33530E-02  0.27131E-02  0.18936E-02  0.97188E-03
  0.78503E-03  0.19262E-02  0.33099E-02  0.47443E-02  0.61525E-02  0.74691E-02
  0.86434E-02  0.96459E-02  0.10459E-01  0.11067E-01  0.11460E-01  0.11649E-01
  0.11649E-01  0.11460E-01  0.11067E-01  0.10459E-01  0.96459E-02  0.86434E-02
  0.74691E-02  0.61525E-02  0.47443E-02  0.33099E-02  0.19262E-02  0.78504E-03
  0.17884E-02  0.21406E-02  0.24003E-02  0.25568E-02  0.26159E-02  0.25858E-02
  0.24659E-02  0.22482E-02  0.19247E-02  0.14939E-02  0.96811E-03  0.38610E-03
  0.30351E-03  0.90790E-03  0.15100E-02  0.20781E-02  0.25965E-02  0.30619E-02
  0.34834E-02  0.38639E-02  0.41849E-02  0.44191E-02  0.45526E-02  0.45811E-02
  0.44859E-02  0.42290E-02  0.37751E-02  0.31084E-02  0.22321E-02  0.12040E-02
  0.79502E-03  0.20291E-02  0.36094E-02  0.52648E-02  0.69026E-02  0.84448E-02
  0.98265E-02  0.11007E-01  0.11965E-01  0.12684E-01  0.13156E-01  0.13386E-01
  0.13386E-01  0.13156E-01  0.12684E-01  0.11965E-01  0.11007E-01  0.98265E-02
  0.84448E-02  0.69026E-02  0.52649E-02  0.36094E-02  0.20291E-02  0.79502E-03
  0.19133E-02  0.22719E-02  0.25360E-02  0.26903E-02  0.27426E-02  0.27017E-02
  0.25586E-02  0.22945E-02  0.19022E-02  0.13938E-02  0.79726E-03  0.18841E-03
  0.57591E-03  0.12384E-02  0.18755E-02  0.24673E-02  0.30038E-02  0.34834E-02
  0.39104E-02  0.42809E-02  0.45767E-02  0.47815E-02  0.48957E-02  0.49223E-02
  0.48382E-02  0.45952E-02  0.41498E-02  0.34791E-02  0.25740E-02  0.14650E-02
  0.76871E-03  0.20169E-02  0.37615E-02  0.56050E-02  0.74385E-02  0.91735E-02
  0.10732E-01  0.12062E-01  0.13138E-01  0.13949E-01  0.14488E-01  0.14754E-01
  0.14754E-01  0.14488E-01  0.13949E-01  0.13138E-01  0.12062E-01  0.10732E-01
  0.91735E-02  0.74385E-02  0.56050E-02  0.37615E-02  0.20169E-02  0.76872E-03
  0.19259E-02  0.22778E-02  0.25427E-02  0.27022E-02  0.27621E-02  0.27246E-02
  0.25690E-02  0.22691E-02  0.18224E-02  0.12551E-02  0.60753E-03  0.17822E-03
  0.84534E-03  0.15420E-02  0.22027E-02  0.28156E-02  0.33726E-02  0.38639E-02
  0.42809E-02  0.46181E-02  0.48734E-02  0.50518E-02  0.51612E-02  0.51930E-02
  0.51092E-02  0.48601E-02  0.44133E-02  0.37543E-02  0.28630E-02  0.17325E-02
  0.74578E-03  0.18486E-02  0.36975E-02  0.56767E-02  0.76558E-02  0.95353E-02
  0.11227E-01  0.12669E-01  0.13835E-01  0.14713E-01  0.15299E-01  0.15590E-01
  0.15590E-01  0.15299E-01  0.14713E-01  0.13835E-01  0.12669E-01  0.11227E-01
  0.95353E-02  0.76558E-02  0.56767E-02  0.36975E-02  0.18486E-02  0.74578E-03
  0.17823E-02  0.21114E-02  0.23751E-02  0.25539E-02  0.26446E-02  0.26341E-02
  0.24874E-02  0.21745E-02  0.17001E-02  0.11007E-02  0.42716E-03  0.36141E-03
  0.10884E-02  0.18063E-02  0.24843E-02  0.31169E-02  0.36921E-02  0.41849E-02
  0.45767E-02  0.48734E-02  0.50964E-02  0.52586E-02  0.53484E-02  0.53321E-02
  0.51755E-02  0.48669E-02  0.44164E-02  0.38203E-02  0.30293E-02  0.19781E-02
  0.80820E-03  0.15031E-02  0.33762E-02  0.54259E-02  0.74870E-02  0.94451E-02
  0.11208E-01  0.12714E-01  0.13934E-01  0.14851E-01  0.15458E-01  0.15758E-01
  0.15758E-01  0.15458E-01  0.14851E-01  0.13934E-01  0.12714E-01  0.11208E-01
  0.94451E-02  0.74870E-02  0.54259E-02  0.33762E-02  0.15031E-02  0.80820E-03
  0.14556E-02  0.17407E-02  0.19985E-02  0.22099E-02  0.23563E-02  0.24019E-02
  0.22963E-02  0.20068E-02  0.15431E-02  0.94645E-03  0.28573E-03  0.54069E-03
  0.12874E-02  0.20172E-02  0.27080E-02  0.33558E-02  0.39388E-02  0.44191E-02
  0.47815E-02  0.50518E-02  0.52586E-02  0.53851E-02  0.53764E-02  0.52007E-02
  0.48955E-02  0.45440E-02  0.41967E-02  0.38079E-02  0.32446E-02  0.23646E-02
  0.11432E-02  0.91045E-03  0.27245E-02  0.47960E-02  0.68838E-02  0.88532E-02
  0.10614E-01  0.12123E-01  0.13354E-01  0.14282E-01  0.14888E-01  0.15182E-01
  0.15182E-01  0.14888E-01  0.14282E-01  0.13354E-01  0.12123E-01  0.10614E-01
  0.88532E-02  0.68838E-02  0.47960E-02  0.27245E-02  0.91046E-03  0.11432E-02
  0.96908E-03  0.11872E-02  0.14239E-02  0.16718E-02  0.18945E-02  0.20267E-02
  0.19997E-02  0.17767E-02  0.13667E-02  0.80881E-03  0.22247E-03  0.67979E-03
  0.14288E-02  0.21620E-02  0.28600E-02  0.35149E-02  0.40929E-02  0.45526E-02
  0.48957E-02  0.51612E-02  0.53484E-02  0.53764E-02  0.51661E-02  0.47718E-02
  0.43952E-02  0.42269E-02  0.42675E-02  0.43020E-02  0.40402E-02  0.32940E-02
  0.20528E-02  0.54202E-03  0.16610E-02  0.37250E-02  0.58039E-02  0.77359E-02
  0.94340E-02  0.10882E-01  0.12078E-01  0.12988E-01  0.13581E-01  0.13863E-01
  0.13863E-01  0.13581E-01  0.12988E-01  0.12078E-01  0.10882E-01  0.94341E-02
  0.77359E-02  0.58039E-02  0.37250E-02  0.16610E-02  0.54201E-03  0.20528E-02
  0.68154E-03  0.75078E-03  0.81371E-03  0.10145E-02  0.13118E-02  0.15569E-02
  0.16418E-02  0.15217E-02  0.11995E-02  0.70838E-03  0.24105E-03  0.76177E-03
  0.14983E-02  0.22245E-02  0.29215E-02  0.35740E-02  0.41387E-02  0.45811E-02
  0.49223E-02  0.51930E-02  0.53321E-02  0.52007E-02  0.47718E-02  0.42962E-02
  0.41858E-02  0.46541E-02  0.54531E-02  0.60101E-02  0.58535E-02  0.49088E-02
  0.34235E-02  0.16795E-02  0.39122E-03  0.22721E-02  0.42681E-02  0.61160E-02
  0.77095E-02  0.90499E-02  0.10165E-01  0.11032E-01  0.11601E-01  0.11871E-01
  0.11871E-01  0.11601E-01  0.11032E-01  0.10165E-01  0.90499E-02  0.77095E-02
  0.61161E-02  0.42681E-02  0.22721E-02  0.39122E-03  0.16795E-02  0.34235E-02
  0.13878E-02  0.13082E-02  0.93213E-03  0.54828E-03  0.70499E-03  0.10736E-02
  0.12918E-02  0.12920E-02  0.10729E-02  0.66238E-03  0.28216E-03  0.76996E-03
  0.14761E-02  0.21812E-02  0.28644E-02  0.35038E-02  0.40517E-02  0.44859E-02
  0.48382E-02  0.51092E-02  0.51755E-02  0.48955E-02  0.43952E-02  0.41858E-02
  0.48396E-02  0.63759E-02  0.80139E-02  0.87205E-02  0.80118E-02  0.62557E-02
  0.42307E-02  0.24401E-02  0.88179E-03  0.78531E-03  0.24600E-02  0.41120E-02
  0.55544E-02  0.67534E-02  0.77524E-02  0.85455E-02  0.90798E-02  0.93366E-02
  0.93366E-02  0.90798E-02  0.85455E-02  0.77525E-02  0.67534E-02  0.55544E-02
  0.41120E-02  0.24600E-02  0.78531E-03  0.88179E-03  0.24401E-02  0.42307E-02
  0.24632E-02  0.23180E-02  0.17107E-02  0.87781E-03  0.24990E-03  0.66190E-03
  0.10170E-02  0.11325E-02  0.10122E-02  0.68089E-03  0.32325E-03  0.69128E-03
  0.13427E-02  0.20078E-02  0.26598E-02  0.32718E-02  0.37981E-02  0.42290E-02
  0.45952E-02  0.48601E-02  0.48669E-02  0.45440E-02  0.42269E-02  0.46541E-02
  0.63759E-02  0.89109E-02  0.10795E-01  0.10673E-01  0.84320E-02  0.53428E-02
  0.29829E-02  0.17676E-02  0.10040E-02  0.27162E-03  0.75337E-03  0.19747E-02
  0.31702E-02  0.41879E-02  0.50379E-02  0.57288E-02  0.62118E-02  0.64516E-02
  0.64516E-02  0.62118E-02  0.57288E-02  0.50379E-02  0.41879E-02  0.31702E-02
  0.19747E-02  0.75337E-03  0.27162E-03  0.10040E-02  0.17676E-02  0.29829E-02
  0.34372E-02  0.32386E-02  0.24739E-02  0.14425E-02  0.49748E-03  0.43640E-03
  0.87007E-03  0.10758E-02  0.10369E-02  0.77274E-03  0.40323E-03  0.53127E-03
  0.10905E-02  0.16939E-02  0.22941E-02  0.28601E-02  0.33530E-02  0.37751E-02
  0.41498E-02  0.44133E-02  0.44164E-02  0.41967E-02  0.42675E-02  0.54531E-02
  0.80139E-02  0.10795E-01  0.11748E-01  0.95365E-02  0.49823E-02  0.24533E-02
  0.41547E-02  0.38973E-02  0.20298E-02  0.48164E-03  0.74218E-03  0.73942E-03
  0.10741E-02  0.17088E-02  0.23242E-02  0.28607E-02  0.32626E-02  0.34733E-02
  0.34733E-02  0.32626E-02  0.28607E-02  0.23242E-02  0.17088E-02  0.10741E-02
  0.73942E-03  0.74218E-03  0.48164E-03  0.20298E-02  0.38973E-02  0.41547E-02
  0.41117E-02  0.39341E-02  0.31296E-02  0.20167E-02  0.97280E-03  0.52861E-03
  0.87001E-03  0.11344E-02  0.11566E-02  0.94514E-03  0.57816E-03  0.37097E-03
  0.73671E-03  0.12499E-02  0.17753E-02  0.22731E-02  0.27131E-02  0.31084E-02
  0.34791E-02  0.37543E-02  0.38203E-02  0.38079E-02  0.43020E-02  0.60101E-02
  0.87205E-02  0.10673E-01  0.95365E-02  0.44200E-02  0.36028E-02  0.98986E-02
  0.12186E-01  0.99451E-02  0.52798E-02  0.10310E-02  0.16085E-02  0.22567E-02
  0.20324E-02  0.16140E-02  0.12397E-02  0.97812E-03  0.89223E-03  0.91025E-03
  0.91025E-03  0.89223E-03  0.97812E-03  0.12397E-02  0.16140E-02  0.20324E-02
  0.22567E-02  0.16085E-02  0.10310E-02  0.52798E-02  0.99451E-02  0.12186E-01
  0.44228E-02  0.43751E-02  0.36579E-02  0.25391E-02  0.13923E-02  0.74035E-03
  0.98432E-03  0.12939E-02  0.13605E-02  0.11900E-02  0.85250E-03  0.47565E-03
  0.38274E-03  0.71502E-03  0.11318E-02  0.15341E-02  0.18936E-02  0.22322E-02
  0.25740E-02  0.28630E-02  0.30293E-02  0.32446E-02  0.40402E-02  0.58535E-02
  0.80118E-02  0.84320E-02  0.49823E-02  0.36028E-02  0.12762E-01  0.19505E-01
  0.20478E-01  0.15787E-01  0.83942E-02  0.18187E-02  0.22827E-02  0.37729E-02
  0.39172E-02  0.36008E-02  0.31686E-02  0.27004E-02  0.22836E-02  0.20364E-02
  0.20364E-02  0.22836E-02  0.27004E-02  0.31686E-02  0.36008E-02  0.39172E-02
  0.37729E-02  0.22827E-02  0.18187E-02  0.83942E-02  0.15787E-01  0.20478E-01
  0.42948E-02  0.44107E-02  0.38318E-02  0.27505E-02  0.15493E-02  0.87146E-03
  0.11680E-02  0.15193E-02  0.16126E-02  0.14753E-02  0.11861E-02  0.83809E-03
  0.52178E-03  0.36647E-03  0.49738E-03  0.73799E-03  0.97188E-03  0.12041E-02
  0.14650E-02  0.17325E-02  0.19781E-02  0.23646E-02  0.32940E-02  0.49088E-02
  0.62557E-02  0.53428E-02  0.24533E-02  0.98986E-02  0.19505E-01  0.25435E-01
  0.24831E-01  0.18353E-01  0.94103E-02  0.17085E-02  0.30911E-02  0.50296E-02
  0.54278E-02  0.52434E-02  0.48694E-02  0.44227E-02  0.40161E-02  0.37764E-02
  0.37764E-02  0.40161E-02  0.44227E-02  0.48694E-02  0.52434E-02  0.54278E-02
  0.50296E-02  0.30911E-02  0.17085E-02  0.94103E-02  0.18353E-01  0.24831E-01
  0.36352E-02  0.38447E-02  0.33938E-02  0.24191E-02  0.13265E-02  0.94208E-03
  0.14019E-02  0.17645E-02  0.18627E-02  0.17554E-02  0.15290E-02  0.12703E-02
  0.10444E-02  0.88025E-03  0.78710E-03  0.76506E-03  0.78503E-03  0.79502E-03
  0.76872E-03  0.74579E-03  0.80821E-03  0.11432E-02  0.20528E-02  0.34235E-02
  0.42307E-02  0.29829E-02  0.41547E-02  0.12186E-01  0.20478E-01  0.24831E-01
  0.23074E-01  0.16206E-01  0.74996E-02  0.38926E-03  0.41860E-02  0.60185E-02
  0.64366E-02  0.62863E-02  0.59146E-02  0.54532E-02  0.50379E-02  0.47980E-02
  0.47980E-02  0.50379E-02  0.54532E-02  0.59146E-02  0.62863E-02  0.64366E-02
  0.60185E-02  0.41860E-02  0.38926E-03  0.74996E-02  0.16206E-01  0.23074E-01
  0.25190E-02  0.27244E-02  0.23872E-02  0.16227E-02  0.92284E-03  0.11297E-02
  0.16601E-02  0.19775E-02  0.20615E-02  0.19862E-02  0.18362E-02  0.16929E-02
  0.16129E-02  0.16101E-02  0.16721E-02  0.17861E-02  0.19262E-02  0.20291E-02
  0.20169E-02  0.18486E-02  0.15031E-02  0.91046E-03  0.54202E-03  0.16795E-02
  0.24401E-02  0.17676E-02  0.38973E-02  0.99451E-02  0.15787E-01  0.18353E-01
  0.16206E-01  0.10357E-01  0.34311E-02  0.21547E-02  0.53853E-02  0.66810E-02
  0.69099E-02  0.66772E-02  0.62302E-02  0.57042E-02  0.52537E-02  0.50033E-02
  0.50033E-02  0.52537E-02  0.57042E-02  0.62302E-02  0.66772E-02  0.69099E-02
  0.66810E-02  0.53853E-02  0.21547E-02  0.34311E-02  0.10357E-01  0.16206E-01
  0.12733E-02  0.14263E-02  0.12232E-02  0.84780E-03  0.92733E-03  0.14391E-02
  0.18724E-02  0.21035E-02  0.21665E-02  0.21307E-02  0.20709E-02  0.20614E-02
  0.21522E-02  0.23478E-02  0.26245E-02  0.29573E-02  0.33099E-02  0.36094E-02
  0.37615E-02  0.36975E-02  0.33762E-02  0.27245E-02  0.16610E-02  0.39122E-03
  0.88179E-03  0.10040E-02  0.20298E-02  0.52798E-02  0.83942E-02  0.94103E-02
  0.74996E-02  0.34311E-02  0.10638E-02  0.44848E-02  0.63271E-02  0.69304E-02
  0.68510E-02  0.64346E-02  0.58354E-02  0.51941E-02  0.46773E-02  0.44005E-02
  0.44005E-02  0.46773E-02  0.51941E-02  0.58354E-02  0.64346E-02  0.68510E-02
  0.69304E-02  0.63271E-02  0.44848E-02  0.10638E-02  0.34311E-02  0.74996E-02
  0.61973E-03  0.71074E-03  0.75587E-03  0.93020E-03  0.12949E-02  0.16799E-02
  0.19537E-02  0.20948E-02  0.21442E-02  0.21599E-02  0.22063E-02  0.23492E-02
  0.26307E-02  0.30476E-02  0.35674E-02  0.41503E-02  0.47443E-02  0.52648E-02
  0.56050E-02  0.56767E-02  0.54259E-02  0.47960E-02  0.37250E-02  0.22721E-02
  0.78531E-03  0.27162E-03  0.48164E-03  0.10310E-02  0.18187E-02  0.17085E-02
  0.38926E-03  0.21547E-02  0.44848E-02  0.60795E-02  0.67497E-02  0.67250E-02
  0.62935E-02  0.56199E-02  0.48119E-02  0.40185E-02  0.34057E-02  0.30806E-02
  0.30806E-02  0.34057E-02  0.40185E-02  0.48119E-02  0.56199E-02  0.62935E-02
  0.67250E-02  0.67497E-02  0.60795E-02  0.44848E-02  0.21547E-02  0.38926E-03
  0.10971E-02  0.11246E-02  0.11872E-02  0.13290E-02  0.15325E-02  0.17256E-02
  0.18564E-02  0.19281E-02  0.19797E-02  0.20619E-02  0.22320E-02  0.25460E-02
  0.30343E-02  0.36861E-02  0.44612E-02  0.53062E-02  0.61525E-02  0.69026E-02
  0.74385E-02  0.76558E-02  0.74870E-02  0.68838E-02  0.58039E-02  0.42681E-02
  0.24600E-02  0.75337E-03  0.74217E-03  0.16085E-02  0.22827E-02  0.30911E-02
  0.41860E-02  0.53853E-02  0.63271E-02  0.67497E-02  0.66308E-02  0.61042E-02
  0.53089E-02  0.43413E-02  0.33103E-02  0.23623E-02  0.16298E-02  0.12102E-02
  0.12102E-02  0.16298E-02  0.23623E-02  0.33103E-02  0.43413E-02  0.53089E-02
  0.61042E-02  0.66308E-02  0.67497E-02  0.63271E-02  0.53853E-02  0.41860E-02
  0.15201E-02  0.15186E-02  0.14982E-02  0.14993E-02  0.15287E-02  0.15633E-02
  0.15878E-02  0.16167E-02  0.16880E-02  0.18507E-02  0.21584E-02  0.26554E-02
  0.33574E-02  0.42453E-02  0.52728E-02  0.63753E-02  0.74691E-02  0.84448E-02
  0.91735E-02  0.95353E-02  0.94451E-02  0.88532E-02  0.77359E-02  0.61161E-02
  0.41120E-02  0.19747E-02  0.73942E-03  0.22567E-02  0.37729E-02  0.50296E-02
  0.60185E-02  0.66810E-02  0.69304E-02  0.67250E-02  0.61042E-02  0.51640E-02
  0.40166E-02  0.27886E-02  0.16571E-02  0.92217E-03  0.89368E-03  0.10805E-02
  0.10805E-02  0.89368E-03  0.92217E-03  0.16571E-02  0.27886E-02  0.40166E-02
  0.51640E-02  0.61042E-02  0.67250E-02  0.69304E-02  0.66810E-02  0.60185E-02
  0.16968E-02  0.16608E-02  0.15605E-02  0.14398E-02  0.13300E-02  0.12452E-02
  0.11968E-02  0.12065E-02  0.13108E-02  0.15618E-02  0.20110E-02  0.26895E-02
  0.35990E-02  0.47127E-02  0.59778E-02  0.73202E-02  0.86434E-02  0.98265E-02
  0.10732E-01  0.11227E-01  0.11208E-01  0.10614E-01  0.94341E-02  0.77095E-02
  0.55544E-02  0.31702E-02  0.10741E-02  0.20324E-02  0.39172E-02  0.54278E-02
  0.64366E-02  0.69099E-02  0.68510E-02  0.62935E-02  0.53089E-02  0.40166E-02
  0.26009E-02  0.14384E-02  0.14633E-02  0.23221E-02  0.30678E-02  0.34681E-02
  0.34681E-02  0.30678E-02  0.23221E-02  0.14633E-02  0.14384E-02  0.26009E-02
  0.40166E-02  0.53089E-02  0.62935E-02  0.68510E-02  0.69099E-02  0.64366E-02
  0.16831E-02  0.16098E-02  0.14443E-02  0.12322E-02  0.10208E-02  0.85115E-03
  0.75569E-03  0.75871E-03  0.89900E-03  0.12377E-02  0.18210E-02  0.26660E-02
  0.37652E-02  0.50849E-02  0.65651E-02  0.81216E-02  0.96459E-02  0.11007E-01
  0.12062E-01  0.12669E-01  0.12714E-01  0.12123E-01  0.10882E-01  0.90499E-02
  0.67534E-02  0.41879E-02  0.17088E-02  0.16140E-02  0.36008E-02  0.52434E-02
  0.62863E-02  0.66772E-02  0.64346E-02  0.56199E-02  0.43413E-02  0.27886E-02
  0.14384E-02  0.17681E-02  0.31378E-02  0.44088E-02  0.53376E-02  0.58256E-02
  0.58256E-02  0.53376E-02  0.44088E-02  0.31378E-02  0.17681E-02  0.14384E-02
  0.27886E-02  0.43413E-02  0.56199E-02  0.64346E-02  0.66772E-02  0.62863E-02
  0.15589E-02  0.14519E-02  0.12406E-02  0.97126E-03  0.70104E-03  0.48953E-03
  0.37516E-03  0.35531E-03  0.50075E-03  0.91733E-03  0.16196E-02  0.26078E-02
  0.38704E-02  0.53680E-02  0.70322E-02  0.87687E-02  0.10459E-01  0.11965E-01
  0.13138E-01  0.13835E-01  0.13934E-01  0.13354E-01  0.12078E-01  0.10165E-01
  0.77525E-02  0.50379E-02  0.23242E-02  0.12397E-02  0.31686E-02  0.48694E-02
  0.59146E-02  0.62302E-02  0.58354E-02  0.48119E-02  0.33103E-02  0.16571E-02
  0.14633E-02  0.31378E-02  0.48792E-02  0.63438E-02  0.73978E-02  0.79505E-02
  0.79505E-02  0.73978E-02  0.63438E-02  0.48792E-02  0.31378E-02  0.14633E-02
  0.16571E-02  0.33103E-02  0.48119E-02  0.58354E-02  0.62302E-02  0.59146E-02
  0.14016E-02  0.12715E-02  0.10368E-02  0.74865E-03  0.48878E-03  0.36507E-03
  0.35312E-03  0.27311E-03  0.18012E-03  0.63592E-03  0.14378E-02  0.25407E-02
  0.39328E-02  0.55702E-02  0.73764E-02  0.92499E-02  0.11067E-01  0.12684E-01
  0.13949E-01  0.14713E-01  0.14851E-01  0.14282E-01  0.12988E-01  0.11032E-01
  0.85455E-02  0.57288E-02  0.28607E-02  0.97812E-03  0.27004E-02  0.44227E-02
  0.54532E-02  0.57042E-02  0.51941E-02  0.40185E-02  0.23623E-02  0.92217E-03
  0.23221E-02  0.44088E-02  0.63438E-02  0.79421E-02  0.90812E-02  0.96741E-02
  0.96741E-02  0.90812E-02  0.79421E-02  0.63438E-02  0.44088E-02  0.23221E-02
  0.92217E-03  0.23623E-02  0.40185E-02  0.51941E-02  0.57042E-02  0.54532E-02
  0.12695E-02  0.11298E-02  0.89159E-03  0.62096E-03  0.45639E-03  0.50581E-03
  0.58236E-03  0.49956E-03  0.18700E-03  0.42603E-03  0.13023E-02  0.24866E-02
  0.39678E-02  0.56986E-02  0.75973E-02  0.95592E-02  0.11460E-01  0.13156E-01
  0.14488E-01  0.15299E-01  0.15458E-01  0.14888E-01  0.13581E-01  0.11601E-01
  0.90798E-02  0.62118E-02  0.32626E-02  0.89223E-03  0.22836E-02  0.40161E-02
  0.50379E-02  0.52537E-02  0.46773E-02  0.34057E-02  0.16298E-02  0.89367E-03
  0.30678E-02  0.53376E-02  0.73978E-02  0.90812E-02  0.10265E-01  0.10874E-01
  0.10874E-01  0.10265E-01  0.90812E-02  0.73978E-02  0.53376E-02  0.30678E-02
  0.89368E-03  0.16298E-02  0.34057E-02  0.46773E-02  0.52537E-02  0.50379E-02
  0.11964E-02  0.10554E-02  0.82190E-03  0.57748E-03  0.49672E-03  0.62607E-03