       #
       # Generated by the Wannier90 code http://www.wannier.org
       # On 10May2024 at 21:04:43 
       #
CRYSTAL
PRIMVEC
   2.7281430   0.0000000   0.0000000
   0.0000000   2.7281430   0.0000000
   0.0000000   0.0000000   3.7789840
CONVVEC
   2.7281430   0.0000000   0.0000000
   0.0000000   2.7281430   0.0000000
   0.0000000   0.0000000   3.7789840
PRIMCOORD
     2  1
Fe      0.0000000   0.0000000   0.0000000
Pt      1.3640715   1.3640715   1.8894920


BEGIN_BLOCK_DATAGRID_3D
3D_field
BEGIN_DATAGRID_3D_UNKNOWN
    54    54    80
   -2.829185   -2.829185   -3.873459
   5.3552437   0.0000000   0.0000000
   0.0000000   5.3552437   0.0000000
   0.0000000   0.0000000   7.4634934
  0.30534E-02  0.32901E-02  0.29433E-02  0.21040E-02  0.11303E-02  0.65401E-03
  0.70606E-03  0.53455E-03  0.27344E-03  0.60460E-03  0.10072E-02  0.12749E-02
  0.13992E-02  0.13932E-02  0.12696E-02  0.10454E-02  0.74426E-03  0.39073E-03
  0.91562E-04  0.45430E-03  0.86613E-03  0.11723E-02  0.11852E-02  0.68797E-03
  0.75571E-03  0.26202E-02  0.47736E-02  0.64992E-02  0.71609E-02  0.64992E-02
  0.47736E-02  0.26202E-02  0.75572E-03  0.68797E-03  0.11852E-02  0.11723E-02
  0.86613E-03  0.45430E-03  0.91562E-04  0.39073E-03  0.74426E-03  0.10454E-02
  0.12696E-02  0.13932E-02  0.13992E-02  0.12749E-02  0.10072E-02  0.60460E-03
  0.27344E-03  0.53455E-03  0.70606E-03  0.65401E-03  0.11304E-02  0.21040E-02
  0.32901E-02  0.37792E-02  0.35716E-02  0.27002E-02  0.15531E-02  0.83685E-03
  0.83854E-03  0.70833E-03  0.37008E-03  0.51744E-03  0.92894E-03  0.12310E-02
  0.13946E-02  0.14294E-02  0.13455E-02  0.11605E-02  0.90030E-03  0.58568E-03
  0.22888E-03  0.20713E-03  0.61603E-03  0.97564E-03  0.11809E-02  0.11431E-02
  0.85177E-03  0.53311E-03  0.76671E-03  0.11883E-02  0.13627E-02  0.11883E-02
  0.76671E-03  0.53311E-03  0.85177E-03  0.11431E-02  0.11809E-02  0.97564E-03
  0.61603E-03  0.20713E-03  0.22888E-03  0.58568E-03  0.90030E-03  0.11605E-02
  0.13455E-02  0.14294E-02  0.13946E-02  0.12310E-02  0.92894E-03  0.51744E-03
  0.37008E-03  0.70833E-03  0.83854E-03  0.83685E-03  0.15531E-02  0.27002E-02
  0.29433E-02  0.35716E-02  0.34754E-02  0.26692E-02  0.15714E-02  0.94136E-03
  0.96428E-03  0.81453E-03  0.44075E-03  0.50185E-03  0.90915E-03  0.12286E-02
  0.14198E-02  0.14903E-02  0.14474E-02  0.13074E-02  0.10967E-02  0.83360E-03
  0.52020E-03  0.17003E-03  0.26152E-03  0.63759E-03  0.10081E-02  0.14300E-02
  0.20002E-02  0.27500E-02  0.35662E-02  0.42160E-02  0.44652E-02  0.42160E-02
  0.35662E-02  0.27500E-02  0.20002E-02  0.14300E-02  0.10081E-02  0.63759E-03
  0.26152E-03  0.17002E-03  0.52020E-03  0.83360E-03  0.10967E-02  0.13074E-02
  0.14474E-02  0.14903E-02  0.14198E-02  0.12286E-02  0.90916E-03  0.50185E-03
  0.44075E-03  0.81453E-03  0.96428E-03  0.94136E-03  0.15714E-02  0.26692E-02
  0.21040E-02  0.27002E-02  0.26692E-02  0.20443E-02  0.12667E-02  0.10091E-02
  0.10559E-02  0.83274E-03  0.44291E-03  0.53843E-03  0.94546E-03  0.12704E-02
  0.14808E-02  0.15833E-02  0.15827E-02  0.14929E-02  0.13380E-02  0.11326E-02
  0.87485E-03  0.56648E-03  0.24056E-03  0.19023E-03  0.58792E-03  0.12416E-02
  0.23289E-02  0.38874E-02  0.56482E-02  0.70761E-02  0.76284E-02  0.70761E-02
  0.56482E-02  0.38874E-02  0.23289E-02  0.12416E-02  0.58792E-03  0.19023E-03
  0.24056E-03  0.56648E-03  0.87485E-03  0.11326E-02  0.13380E-02  0.14929E-02
  0.15827E-02  0.15833E-02  0.14808E-02  0.12704E-02  0.94546E-03  0.53843E-03
  0.44291E-03  0.83274E-03  0.10559E-02  0.10091E-02  0.12667E-02  0.20443E-02
  0.11304E-02  0.15531E-02  0.15714E-02  0.12667E-02  0.10463E-02  0.11035E-02
  0.10578E-02  0.74052E-03  0.40202E-03  0.63072E-03  0.10380E-02  0.13617E-02
  0.15861E-02  0.17164E-02  0.17548E-02  0.17127E-02  0.16099E-02  0.14575E-02
  0.12521E-02  0.99614E-03  0.71497E-03  0.43160E-03  0.14529E-03  0.57557E-03
  0.16501E-02  0.32709E-02  0.51524E-02  0.67015E-02  0.73049E-02  0.67015E-02
  0.51524E-02  0.32709E-02  0.16501E-02  0.57557E-03  0.14529E-03  0.43160E-03
  0.71497E-03  0.99614E-03  0.12521E-02  0.14575E-02  0.16099E-02  0.17127E-02
  0.17548E-02  0.17164E-02  0.15861E-02  0.13617E-02  0.10380E-02  0.63072E-03
  0.40202E-03  0.74052E-03  0.10578E-02  0.11035E-02  0.10463E-02  0.12667E-02
  0.65401E-03  0.83685E-03  0.94136E-03  0.10091E-02  0.11035E-02  0.11131E-02
  0.91241E-03  0.55003E-03  0.42483E-03  0.78834E-03  0.11844E-02  0.15019E-02
  0.17349E-02  0.18843E-02  0.19505E-02  0.19424E-02  0.18759E-02  0.17606E-02
  0.15957E-02  0.13862E-02  0.11584E-02  0.94190E-03  0.70974E-03  0.33544E-03
  0.41442E-03  0.15480E-02  0.29268E-02  0.40913E-02  0.45502E-02  0.40913E-02
  0.29268E-02  0.15480E-02  0.41442E-03  0.33544E-03  0.70974E-03  0.94190E-03
  0.11584E-02  0.13862E-02  0.15957E-02  0.17606E-02  0.18759E-02  0.19424E-02
  0.19505E-02  0.18843E-02  0.17349E-02  0.15019E-02  0.11844E-02  0.78834E-03
  0.42483E-03  0.55003E-03  0.91241E-03  0.11131E-02  0.11035E-02  0.10091E-02
  0.70606E-03  0.83854E-03  0.96428E-03  0.10559E-02  0.10578E-02  0.91241E-03
  0.62693E-03  0.39153E-03  0.60616E-03  0.10063E-02  0.13779E-02  0.16829E-02
  0.19145E-02  0.20686E-02  0.21441E-02  0.21480E-02  0.20941E-02  0.19941E-02
  0.18542E-02  0.16828E-02  0.15026E-02  0.13464E-02  0.12224E-02  0.10713E-02
  0.77577E-03  0.25621E-03  0.45055E-03  0.10596E-02  0.13060E-02  0.10596E-02
  0.45055E-03  0.25621E-03  0.77577E-03  0.10713E-02  0.12224E-02  0.13464E-02
  0.15026E-02  0.16828E-02  0.18542E-02  0.19941E-02  0.20941E-02  0.21480E-02
  0.21441E-02  0.20686E-02  0.19145E-02  0.16829E-02  0.13779E-02  0.10063E-02
  0.60616E-03  0.39153E-03  0.62693E-03  0.91241E-03  0.10578E-02  0.10559E-02
  0.53455E-03  0.70833E-03  0.81453E-03  0.83274E-03  0.74052E-03  0.55003E-03
  0.39153E-03  0.54411E-03  0.89578E-03  0.12690E-02  0.16078E-02  0.18901E-02
  0.21043E-02  0.22435E-02  0.23063E-02  0.22987E-02  0.22340E-02  0.21287E-02
  0.19982E-02  0.18557E-02  0.17174E-02  0.16075E-02  0.15491E-02  0.15371E-02
  0.15221E-02  0.14399E-02  0.12765E-02  0.11029E-02  0.10277E-02  0.11029E-02
  0.12765E-02  0.14399E-02  0.15221E-02  0.15371E-02  0.15491E-02  0.16075E-02
  0.17174E-02  0.18557E-02  0.19982E-02  0.21287E-02  0.22340E-02  0.22987E-02
  0.23063E-02  0.22435E-02  0.21043E-02  0.18901E-02  0.16078E-02  0.12690E-02
  0.89578E-03  0.54411E-03  0.39153E-03  0.55003E-03  0.74052E-03  0.83274E-03
  0.27344E-03  0.37008E-03  0.44075E-03  0.44291E-03  0.40202E-03  0.42483E-03
  0.60616E-03  0.89578E-03  0.12263E-02  0.15562E-02  0.18553E-02  0.21005E-02
  0.22775E-02  0.23803E-02  0.24091E-02  0.23704E-02  0.22782E-02  0.21539E-02
  0.20210E-02  0.18986E-02  0.17986E-02  0.17327E-02  0.17175E-02  0.17661E-02
  0.18681E-02  0.19857E-02  0.20768E-02  0.21242E-02  0.21371E-02  0.21242E-02
  0.20768E-02  0.19857E-02  0.18681E-02  0.17661E-02  0.17175E-02  0.17327E-02
  0.17986E-02  0.18986E-02  0.20210E-02  0.21539E-02  0.22782E-02  0.23704E-02
  0.24091E-02  0.23803E-02  0.22775E-02  0.21005E-02  0.18553E-02  0.15562E-02
  0.12263E-02  0.89578E-03  0.60616E-03  0.42483E-03  0.40202E-03  0.44291E-03
  0.60460E-03  0.51744E-03  0.50185E-03  0.53843E-03  0.63072E-03  0.78834E-03
  0.10063E-02  0.12690E-02  0.15562E-02  0.18407E-02  0.20913E-02  0.22835E-02
  0.24045E-02  0.24518E-02  0.24291E-02  0.23457E-02  0.22189E-02  0.20725E-02
  0.19337E-02  0.18261E-02  0.17628E-02  0.17481E-02  0.17843E-02  0.18752E-02
  0.20176E-02  0.21897E-02  0.23525E-02  0.24668E-02  0.25075E-02  0.24668E-02
  0.23525E-02  0.21897E-02  0.20176E-02  0.18752E-02  0.17843E-02  0.17481E-02
  0.17628E-02  0.18261E-02  0.19337E-02  0.20725E-02  0.22189E-02  0.23457E-02
  0.24291E-02  0.24518E-02  0.24045E-02  0.22835E-02  0.20913E-02  0.18407E-02
  0.15562E-02  0.12690E-02  0.10063E-02  0.78834E-03  0.63072E-03  0.53843E-03
  0.10072E-02  0.92894E-03  0.90915E-03  0.94546E-03  0.10380E-02  0.11844E-02
  0.13779E-02  0.16078E-02  0.18553E-02  0.20913E-02  0.22838E-02  0.24103E-02
  0.24622E-02  0.24411E-02  0.23554E-02  0.22213E-02  0.20611E-02  0.18995E-02
  0.17617E-02  0.16713E-02  0.16452E-02  0.16872E-02  0.17889E-02  0.19375E-02
  0.21192E-02  0.23142E-02  0.24920E-02  0.26173E-02  0.26625E-02  0.26173E-02
  0.24920E-02  0.23142E-02  0.21192E-02  0.19375E-02  0.17889E-02  0.16872E-02
  0.16452E-02  0.16713E-02  0.17617E-02  0.18995E-02  0.20611E-02  0.22213E-02
  0.23554E-02  0.24411E-02  0.24622E-02  0.24103E-02  0.22838E-02  0.20913E-02
  0.18553E-02  0.16078E-02  0.13779E-02  0.11844E-02  0.10380E-02  0.94546E-03
  0.12749E-02  0.12310E-02  0.12286E-02  0.12704E-02  0.13617E-02  0.15019E-02
  0.16829E-02  0.18901E-02  0.21005E-02  0.22835E-02  0.24103E-02  0.24641E-02
  0.24412E-02  0.23473E-02  0.21970E-02  0.20147E-02  0.18288E-02  0.16641E-02
  0.15404E-02  0.14773E-02  0.14926E-02  0.15913E-02  0.17609E-02  0.19776E-02
  0.22166E-02  0.24527E-02  0.26565E-02  0.27961E-02  0.28460E-02  0.27961E-02
  0.26565E-02  0.24527E-02  0.22166E-02  0.19776E-02  0.17609E-02  0.15913E-02
  0.14926E-02  0.14773E-02  0.15404E-02  0.16641E-02  0.18288E-02  0.20147E-02
  0.21970E-02  0.23473E-02  0.24412E-02  0.24641E-02  0.24103E-02  0.22835E-02
  0.21005E-02  0.18901E-02  0.16829E-02  0.15019E-02  0.13617E-02  0.12704E-02
  0.13992E-02  0.13946E-02  0.14198E-02  0.14808E-02  0.15861E-02  0.17349E-02
  0.19145E-02  0.21043E-02  0.22775E-02  0.24045E-02  0.24622E-02  0.24412E-02
  0.23444E-02  0.21831E-02  0.19778E-02  0.17588E-02  0.15590E-02  0.14026E-02
  0.13058E-02  0.12837E-02  0.13504E-02  0.15093E-02  0.17455E-02  0.20320E-02
  0.23387E-02  0.26344E-02  0.28841E-02  0.30523E-02  0.31118E-02  0.30523E-02
  0.28841E-02  0.26344E-02  0.23387E-02  0.20320E-02  0.17455E-02  0.15093E-02
  0.13504E-02  0.12837E-02  0.13058E-02  0.14026E-02  0.15590E-02  0.17588E-02
  0.19778E-02  0.21831E-02  0.23444E-02  0.24412E-02  0.24622E-02  0.24045E-02
  0.22775E-02  0.21043E-02  0.19145E-02  0.17349E-02  0.15861E-02  0.14808E-02
  0.13932E-02  0.14294E-02  0.14903E-02  0.15833E-02  0.17164E-02  0.18843E-02
  0.20686E-02  0.22435E-02  0.23803E-02  0.24518E-02  0.24411E-02  0.23473E-02
  0.21831E-02  0.19675E-02  0.17256E-02  0.14885E-02  0.12883E-02  0.11495E-02
  0.10893E-02  0.11219E-02  0.12569E-02  0.14909E-02  0.18048E-02  0.21702E-02
  0.25544E-02  0.29200E-02  0.32245E-02  0.34266E-02  0.34974E-02  0.34266E-02
  0.32245E-02  0.29200E-02  0.25544E-02  0.21702E-02  0.18048E-02  0.14909E-02
  0.12569E-02  0.11219E-02  0.10893E-02  0.11495E-02  0.12883E-02  0.14885E-02
  0.17256E-02  0.19675E-02  0.21831E-02  0.23473E-02  0.24411E-02  0.24518E-02
  0.23803E-02  0.22435E-02  0.20686E-02  0.18843E-02  0.17164E-02  0.15833E-02
  0.12696E-02  0.13455E-02  0.14474E-02  0.15827E-02  0.17548E-02  0.19505E-02
  0.21441E-02  0.23063E-02  0.24091E-02  0.24291E-02  0.23554E-02  0.21970E-02
  0.19778E-02  0.17256E-02  0.14677E-02  0.12317E-02  0.10457E-02  0.93523E-03
  0.92253E-03  0.10247E-02  0.12474E-02  0.15784E-02  0.19916E-02  0.24543E-02
  0.29299E-02  0.33738E-02  0.37359E-02  0.39717E-02  0.40534E-02  0.39717E-02
  0.37359E-02  0.33738E-02  0.29299E-02  0.24543E-02  0.19916E-02  0.15784E-02
  0.12474E-02  0.10247E-02  0.92253E-03  0.93523E-03  0.10457E-02  0.12317E-02
  0.14677E-02  0.17256E-02  0.19778E-02  0.21970E-02  0.23554E-02  0.24291E-02
  0.24091E-02  0.23063E-02  0.21441E-02  0.19505E-02  0.17548E-02  0.15827E-02
  0.10454E-02  0.11605E-02  0.13074E-02  0.14929E-02  0.17127E-02  0.19424E-02
  0.21480E-02  0.22987E-02  0.23704E-02  0.23457E-02  0.22213E-02  0.20147E-02
  0.17588E-02  0.14885E-02  0.12317E-02  0.10127E-02  0.85679E-03  0.79152E-03
  0.84354E-03  0.10322E-02  0.13588E-02  0.18031E-02  0.23313E-02  0.29057E-02
  0.34836E-02  0.40129E-02  0.44368E-02  0.47085E-02  0.48017E-02  0.47085E-02
  0.44368E-02  0.40129E-02  0.34836E-02  0.29057E-02  0.23313E-02  0.18031E-02
  0.13588E-02  0.10322E-02  0.84354E-03  0.79152E-03  0.85679E-03  0.10127E-02
  0.12317E-02  0.14885E-02  0.17588E-02  0.20147E-02  0.22213E-02  0.23457E-02
  0.23704E-02  0.22987E-02  0.21480E-02  0.19424E-02  0.17127E-02  0.14929E-02
  0.74426E-03  0.90030E-03  0.10967E-02  0.13380E-02  0.16099E-02  0.18759E-02
  0.20941E-02  0.22340E-02  0.22782E-02  0.22189E-02  0.20611E-02  0.18288E-02
  0.15590E-02  0.12883E-02  0.10457E-02  0.85679E-03  0.74910E-03  0.75157E-03
  0.89072E-03  0.11829E-02  0.16235E-02  0.21869E-02  0.28349E-02  0.35250E-02
  0.42086E-02  0.48272E-02  0.53185E-02  0.56322E-02  0.57395E-02  0.56322E-02
  0.53185E-02  0.48272E-02  0.42086E-02  0.35250E-02  0.28349E-02  0.21869E-02
  0.16235E-02  0.11829E-02  0.89072E-03  0.75157E-03  0.74910E-03  0.85679E-03
  0.10457E-02  0.12883E-02  0.15590E-02  0.18288E-02  0.20611E-02  0.22189E-02
  0.22782E-02  0.22340E-02  0.20941E-02  0.18759E-02  0.16099E-02  0.13380E-02
  0.39073E-03  0.58569E-03  0.83360E-03  0.11326E-02  0.14575E-02  0.17606E-02
  0.19941E-02  0.21287E-02  0.21539E-02  0.20725E-02  0.18995E-02  0.16641E-02
  0.14026E-02  0.11495E-02  0.93523E-03  0.79152E-03  0.75156E-03  0.84454E-03
  0.10915E-02  0.15003E-02  0.20612E-02  0.27466E-02  0.35164E-02  0.43217E-02
  0.51072E-02  0.58101E-02  0.63663E-02  0.67223E-02  0.68446E-02  0.67223E-02
  0.63663E-02  0.58101E-02  0.51072E-02  0.43217E-02  0.35164E-02  0.27466E-02
  0.20612E-02  0.15003E-02  0.10915E-02  0.84454E-03  0.75156E-03  0.79152E-03
  0.93523E-03  0.11495E-02  0.14026E-02  0.16641E-02  0.18995E-02  0.20725E-02
  0.21539E-02  0.21287E-02  0.19941E-02  0.17606E-02  0.14575E-02  0.11326E-02
  0.91562E-04  0.22888E-03  0.52020E-03  0.87485E-03  0.12521E-02  0.15957E-02
  0.18542E-02  0.19982E-02  0.20210E-02  0.19337E-02  0.17617E-02  0.15404E-02
  0.13058E-02  0.10893E-02  0.92253E-03  0.84354E-03  0.89072E-03  0.10915E-02
  0.14584E-02  0.19910E-02  0.26770E-02  0.34889E-02  0.43807E-02  0.52921E-02
  0.61581E-02  0.69164E-02  0.75096E-02  0.78885E-02  0.80190E-02  0.78885E-02
  0.75096E-02  0.69164E-02  0.61581E-02  0.52921E-02  0.43807E-02  0.34889E-02
  0.26770E-02  0.19910E-02  0.14584E-02  0.10915E-02  0.89072E-03  0.84354E-03
  0.92253E-03  0.10893E-02  0.13058E-02  0.15404E-02  0.17617E-02  0.19337E-02
  0.20210E-02  0.19982E-02  0.18542E-02  0.15957E-02  0.12521E-02  0.87485E-03
  0.45430E-03  0.20713E-03  0.17003E-03  0.56648E-03  0.99614E-03  0.13862E-02
  0.16828E-02  0.18557E-02  0.18986E-02  0.18261E-02  0.16713E-02  0.14773E-02
  0.12837E-02  0.11219E-02  0.10247E-02  0.10322E-02  0.11829E-02  0.15003E-02
  0.19910E-02  0.26500E-02  0.34629E-02  0.43960E-02  0.53895E-02  0.63665E-02
  0.72549E-02  0.80011E-02  0.85673E-02  0.89233E-02  0.90451E-02  0.89233E-02
  0.85673E-02  0.80011E-02  0.72549E-02  0.63665E-02  0.53895E-02  0.43960E-02
  0.34629E-02  0.26500E-02  0.19910E-02  0.15003E-02  0.11829E-02  0.10322E-02
  0.10247E-02  0.11219E-02  0.12837E-02  0.14773E-02  0.16713E-02  0.18261E-02
  0.18986E-02  0.18557E-02  0.16828E-02  0.13862E-02  0.99614E-03  0.56648E-03
  0.86612E-03  0.61603E-03  0.26152E-03  0.24056E-03  0.71497E-03  0.11584E-02
  0.15026E-02  0.17174E-02  0.17986E-02  0.17628E-02  0.16452E-02  0.14926E-02
  0.13504E-02  0.12569E-02  0.12474E-02  0.13588E-02  0.16235E-02  0.20612E-02
  0.26770E-02  0.34629E-02  0.43931E-02  0.54145E-02  0.64466E-02  0.74009E-02
  0.82089E-02  0.88373E-02  0.92813E-02  0.95457E-02  0.96337E-02  0.95457E-02
  0.92813E-02  0.88373E-02  0.82089E-02  0.74009E-02  0.64466E-02  0.54145E-02
  0.43931E-02  0.34629E-02  0.26770E-02  0.20612E-02  0.16235E-02  0.13588E-02
  0.12474E-02  0.12569E-02  0.13504E-02  0.14926E-02  0.16452E-02  0.17628E-02
  0.17986E-02  0.17174E-02  0.15026E-02  0.11584E-02  0.71497E-03  0.24056E-03
  0.11723E-02  0.97564E-03  0.63759E-03  0.19023E-03  0.43160E-03  0.94190E-03
  0.13464E-02  0.16075E-02  0.17327E-02  0.17481E-02  0.16872E-02  0.15913E-02
  0.15093E-02  0.14909E-02  0.15784E-02  0.18031E-02  0.21869E-02  0.27466E-02
  0.34889E-02  0.43960E-02  0.54145E-02  0.64578E-02  0.74259E-02  0.82305E-02
  0.88185E-02  0.91839E-02  0.93666E-02  0.94337E-02  0.94476E-02  0.94337E-02
  0.93666E-02  0.91839E-02  0.88185E-02  0.82305E-02  0.74259E-02  0.64578E-02
  0.54145E-02  0.43960E-02  0.34889E-02  0.27466E-02  0.21869E-02  0.18031E-02
  0.15784E-02  0.14909E-02  0.15093E-02  0.15913E-02  0.16872E-02  0.17481E-02
  0.17327E-02  0.16075E-02  0.13464E-02  0.94190E-03  0.43160E-03  0.19023E-03
  0.11852E-02  0.11809E-02  0.10081E-02  0.58792E-03  0.14529E-03  0.70974E-03
  0.12224E-02  0.15491E-02  0.17175E-02  0.17843E-02  0.17889E-02  0.17609E-02
  0.17455E-02  0.18048E-02  0.19916E-02  0.23313E-02  0.28349E-02  0.35164E-02
  0.43807E-02  0.53895E-02  0.64466E-02  0.74259E-02  0.82112E-02  0.87175E-02
  0.88973E-02  0.87647E-02  0.84302E-02  0.80922E-02  0.79513E-02  0.80922E-02
  0.84302E-02  0.87647E-02  0.88973E-02  0.87175E-02  0.82112E-02  0.74259E-02
  0.64466E-02  0.53895E-02  0.43807E-02  0.35164E-02  0.28349E-02  0.23313E-02
  0.19916E-02  0.18048E-02  0.17455E-02  0.17609E-02  0.17889E-02  0.17843E-02
  0.17175E-02  0.15491E-02  0.12224E-02  0.70974E-03  0.14529E-03  0.58792E-03
  0.68797E-03  0.11431E-02  0.14300E-02  0.12416E-02  0.57557E-03  0.33544E-03
  0.10713E-02  0.15371E-02  0.17661E-02  0.18752E-02  0.19375E-02  0.19776E-02
  0.20320E-02  0.21702E-02  0.24543E-02  0.29057E-02  0.35250E-02  0.43217E-02
  0.52921E-02  0.63665E-02  0.74009E-02  0.82305E-02  0.87175E-02  0.87480E-02
  0.82315E-02  0.71864E-02  0.58656E-02  0.47502E-02  0.43153E-02  0.47502E-02
  0.58656E-02  0.71864E-02  0.82315E-02  0.87480E-02  0.87175E-02  0.82305E-02
  0.74009E-02  0.63665E-02  0.52921E-02  0.43217E-02  0.35250E-02  0.29057E-02
  0.24543E-02  0.21702E-02  0.20320E-02  0.19776E-02  0.19375E-02  0.18752E-02
  0.17661E-02  0.15371E-02  0.10713E-02  0.33544E-03  0.57557E-03  0.12416E-02
  0.75572E-03  0.85177E-03  0.20002E-02  0.23289E-02  0.16501E-02  0.41442E-03
  0.77577E-03  0.15221E-02  0.18681E-02  0.20176E-02  0.21192E-02  0.22166E-02
  0.23387E-02  0.25544E-02  0.29299E-02  0.34836E-02  0.42086E-02  0.51072E-02
  0.61581E-02  0.72549E-02  0.82089E-02  0.88185E-02  0.88973E-02  0.82315E-02
  0.66116E-02  0.40895E-02  0.16382E-02  0.23835E-02  0.32357E-02  0.23835E-02
  0.16382E-02  0.40895E-02  0.66116E-02  0.82315E-02  0.88973E-02  0.88185E-02
  0.82089E-02  0.72549E-02  0.61581E-02  0.51072E-02  0.42086E-02  0.34836E-02
  0.29299E-02  0.25544E-02  0.23387E-02  0.22166E-02  0.21192E-02  0.20176E-02
  0.18681E-02  0.15221E-02  0.77577E-03  0.41442E-03  0.16501E-02  0.23289E-02
  0.26202E-02  0.53311E-03  0.27500E-02  0.38874E-02  0.32709E-02  0.15480E-02
  0.25621E-03  0.14399E-02  0.19857E-02  0.21897E-02  0.23142E-02  0.24527E-02
  0.26344E-02  0.29200E-02  0.33738E-02  0.40129E-02  0.48272E-02  0.58101E-02
  0.69164E-02  0.80011E-02  0.88373E-02  0.91839E-02  0.87647E-02  0.71864E-02
  0.40895E-02  0.18091E-02  0.67964E-02  0.11321E-01  0.13095E-01  0.11321E-01
  0.67964E-02  0.18091E-02  0.40895E-02  0.71864E-02  0.87647E-02  0.91839E-02
  0.88373E-02  0.80011E-02  0.69164E-02  0.58101E-02  0.48272E-02  0.40129E-02
  0.33738E-02  0.29200E-02  0.26344E-02  0.24527E-02  0.23142E-02  0.21897E-02
  0.19857E-02  0.14399E-02  0.25621E-03  0.15480E-02  0.32709E-02  0.38874E-02
  0.47736E-02  0.76671E-03  0.35662E-02  0.56482E-02  0.51524E-02  0.29268E-02
  0.45055E-03  0.12765E-02  0.20768E-02  0.23525E-02  0.24920E-02  0.26565E-02
  0.28841E-02  0.32245E-02  0.37359E-02  0.44368E-02  0.53185E-02  0.63663E-02
  0.75096E-02  0.85673E-02  0.92813E-02  0.93666E-02  0.84302E-02  0.58656E-02
  0.16382E-02  0.67964E-02  0.15084E-01  0.21896E-01  0.24543E-01  0.21896E-01
  0.15084E-01  0.67964E-02  0.16382E-02  0.58656E-02  0.84302E-02  0.93666E-02
  0.92813E-02  0.85673E-02  0.75096E-02  0.63663E-02  0.53185E-02  0.44368E-02
  0.37359E-02  0.32245E-02  0.28841E-02  0.26565E-02  0.24920E-02  0.23525E-02
  0.20768E-02  0.12765E-02  0.45055E-03  0.29268E-02  0.51524E-02  0.56482E-02
  0.64992E-02  0.11883E-02  0.42160E-02  0.70761E-02  0.67015E-02  0.40913E-02
  0.10596E-02  0.11029E-02  0.21242E-02  0.24668E-02  0.26173E-02  0.27961E-02
  0.30523E-02  0.34266E-02  0.39717E-02  0.47085E-02  0.56322E-02  0.67223E-02
  0.78885E-02  0.89233E-02  0.95457E-02  0.94337E-02  0.80922E-02  0.47502E-02
  0.23835E-02  0.11321E-01  0.21896E-01  0.30519E-01  0.33862E-01  0.30519E-01
  0.21896E-01  0.11321E-01  0.23835E-02  0.47502E-02  0.80922E-02  0.94337E-02
  0.95457E-02  0.89233E-02  0.78885E-02  0.67223E-02  0.56322E-02  0.47085E-02
  0.39717E-02  0.34266E-02  0.30523E-02  0.27961E-02  0.26173E-02  0.24668E-02
  0.21242E-02  0.11029E-02  0.10596E-02  0.40913E-02  0.67015E-02  0.70761E-02
  0.71609E-02  0.13627E-02  0.44652E-02  0.76284E-02  0.73049E-02  0.45502E-02
  0.13060E-02  0.10277E-02  0.21371E-02  0.25075E-02  0.26625E-02  0.28460E-02
  0.31118E-02  0.34974E-02  0.40534E-02  0.48017E-02  0.57395E-02  0.68446E-02
  0.80190E-02  0.90451E-02  0.96337E-02  0.94476E-02  0.79513E-02  0.43153E-02
  0.32357E-02  0.13095E-01  0.24543E-01  0.33862E-01  0.37472E-01  0.33862E-01
  0.24543E-01  0.13095E-01  0.32357E-02  0.43153E-02  0.79513E-02  0.94476E-02
  0.96337E-02  0.90451E-02  0.80190E-02  0.68446E-02  0.57395E-02  0.48017E-02
  0.40534E-02  0.34974E-02  0.31118E-02  0.28460E-02  0.26625E-02  0.25075E-02
  0.21371E-02  0.10277E-02  0.13060E-02  0.45502E-02  0.73049E-02  0.76284E-02
  0.64992E-02  0.11883E-02  0.42160E-02  0.70761E-02  0.67015E-02  0.40913E-02
  0.10596E-02  0.11029E-02  0.21242E-02  0.24668E-02  0.26173E-02  0.27961E-02
  0.30523E-02  0.34266E-02  0.39717E-02  0.47085E-02  0.56322E-02  0.67223E-02
  0.78885E-02  0.89233E-02  0.95457E-02  0.94337E-02  0.80922E-02  0.47502E-02
  0.23835E-02  0.11321E-01  0.21896E-01  0.30519E-01  0.33862E-01  0.30519E-01
  0.21896E-01  0.11321E-01  0.23835E-02  0.47502E-02  0.80922E-02  0.94337E-02
  0.95457E-02  0.89233E-02  0.78885E-02  0.67223E-02  0.56322E-02  0.47085E-02
  0.39717E-02  0.34266E-02  0.30523E-02  0.27961E-02  0.26173E-02  0.24668E-02
  0.21242E-02  0.11029E-02  0.10596E-02  0.40913E-02  0.67015E-02  0.70761E-02
  0.47736E-02  0.76671E-03  0.35662E-02  0.56482E-02  0.51524E-02  0.29268E-02
  0.45055E-03  0.12765E-02  0.20768E-02  0.23525E-02  0.24920E-02  0.26565E-02
  0.28841E-02  0.32245E-02  0.37359E-02  0.44368E-02  0.53185E-02  0.63663E-02
  0.75096E-02  0.85673E-02  0.92813E-02  0.93666E-02  0.84302E-02  0.58656E-02
  0.16382E-02  0.67964E-02  0.15084E-01  0.21896E-01  0.24543E-01  0.21896E-01
  0.15084E-01  0.67964E-02  0.16382E-02  0.58656E-02  0.84302E-02  0.93666E-02
  0.92813E-02  0.85673E-02  0.75096E-02  0.63663E-02  0.53185E-02  0.44368E-02
  0.37359E-02  0.32245E-02  0.28841E-02  0.26565E-02  0.24920E-02  0.23525E-02
  0.20768E-02  0.12765E-02  0.45055E-03  0.29268E-02  0.51524E-02  0.56482E-02
  0.26202E-02  0.53310E-03  0.27500E-02  0.38874E-02  0.32709E-02  0.15480E-02
  0.25621E-03  0.14399E-02  0.19857E-02  0.21897E-02  0.23142E-02  0.24527E-02
  0.26344E-02  0.29200E-02  0.33738E-02  0.40129E-02  0.48272E-02  0.58101E-02
  0.69164E-02  0.80011E-02  0.88373E-02  0.91839E-02  0.87647E-02  0.71864E-02
  0.40895E-02  0.18091E-02  0.67964E-02  0.11321E-01  0.13095E-01  0.11321E-01
  0.67964E-02  0.18091E-02  0.40895E-02  0.71864E-02  0.87647E-02  0.91839E-02
  0.88373E-02  0.80011E-02  0.69164E-02  0.58101E-02  0.48272E-02  0.40129E-02
  0.33738E-02  0.29200E-02  0.26344E-02  0.24527E-02  0.23142E-02  0.21897E-02
  0.19857E-02  0.14399E-02  0.25621E-03  0.15480E-02  0.32709E-02  0.38874E-02
  0.75572E-03  0.85177E-03  0.20002E-02  0.23289E-02  0.16501E-02  0.41442E-03
  0.77577E-03  0.15221E-02  0.18681E-02  0.20176E-02  0.21192E-02  0.22166E-02
  0.23387E-02  0.25544E-02  0.29299E-02  0.34836E-02  0.42086E-02  0.51072E-02
  0.61581E-02  0.72549E-02  0.82089E-02  0.88185E-02  0.88973E-02  0.82315E-02
  0.66116E-02  0.40895E-02  0.16382E-02  0.23835E-02  0.32357E-02  0.23835E-02
  0.16382E-02  0.40895E-02  0.66116E-02  0.82315E-02  0.88973E-02  0.88185E-02
  0.82089E-02  0.72549E-02  0.61581E-02  0.51072E-02  0.42086E-02  0.34836E-02
  0.29299E-02  0.25544E-02  0.23387E-02  0.22166E-02  0.21192E-02  0.20176E-02
  0.18681E-02  0.15221E-02  0.77577E-03  0.41442E-03  0.16501E-02  0.23289E-02
  0.68797E-03  0.11431E-02  0.14300E-02  0.12416E-02  0.57557E-03  0.33544E-03
  0.10713E-02  0.15371E-02  0.17661E-02  0.18752E-02  0.19375E-02  0.19776E-02
  0.20320E-02  0.21702E-02  0.24543E-02  0.29057E-02  0.35250E-02  0.43217E-02
  0.52921E-02  0.63665E-02  0.74009E-02  0.82305E-02  0.87175E-02  0.87480E-02
  0.82315E-02  0.71864E-02  0.58656E-02  0.47502E-02  0.43153E-02  0.47502E-02
  0.58656E-02  0.71864E-02  0.82315E-02  0.87480E-02  0.87175E-02  0.82305E-02
  0.74009E-02  0.63665E-02  0.52921E-02  0.43217E-02  0.35250E-02  0.29057E-02
  0.24543E-02  0.21702E-02  0.20320E-02  0.19776E-02  0.19375E-02  0.18752E-02
  0.17661E-02  0.15371E-02  0.10713E-02  0.33544E-03  0.57557E-03  0.12416E-02
  0.11852E-02  0.11809E-02  0.10081E-02  0.58792E-03  0.14529E-03  0.70974E-03
  0.12224E-02  0.15491E-02  0.17175E-02  0.17843E-02  0.17889E-02  0.17609E-02
  0.17455E-02  0.18048E-02  0.19916E-02  0.23313E-02  0.28349E-02  0.35164E-02
  0.43807E-02  0.53895E-02  0.64466E-02  0.74259E-02  0.82112E-02  0.87175E-02
  0.88973E-02  0.87647E-02  0.84302E-02  0.80922E-02  0.79513E-02  0.80922E-02
  0.84302E-02  0.87647E-02  0.88973E-02  0.87175E-02  0.82112E-02  0.74259E-02
  0.64466E-02  0.53895E-02  0.43807E-02  0.35164E-02  0.28349E-02  0.23313E-02
  0.19916E-02  0.18048E-02  0.17455E-02  0.17609E-02  0.17889E-02  0.17843E-02
  0.17175E-02  0.15491E-02  0.12224E-02  0.70974E-03  0.14529E-03  0.58792E-03
  0.11723E-02  0.97564E-03  0.63759E-03  0.19023E-03  0.43160E-03  0.94190E-03
  0.13464E-02  0.16075E-02  0.17327E-02  0.17481E-02  0.16872E-02  0.15913E-02
  0.15093E-02  0.14909E-02  0.15784E-02  0.18031E-02  0.21869E-02  0.27466E-02
  0.34889E-02  0.43960E-02  0.54145E-02  0.64578E-02  0.74259E-02  0.82305E-02
  0.88185E-02  0.91839E-02  0.93666E-02  0.94337E-02  0.94476E-02  0.94337E-02
  0.93666E-02  0.91839E-02  0.88185E-02  0.82305E-02  0.74259E-02  0.64578E-02
  0.54145E-02  0.43960E-02  0.34889E-02  0.27466E-02  0.21869E-02  0.18031E-02
  0.15784E-02  0.14909E-02  0.15093E-02  0.15913E-02  0.16872E-02  0.17481E-02
  0.17327E-02  0.16075E-02  0.13464E-02  0.94190E-03  0.43160E-03  0.19023E-03
  0.86612E-03  0.61603E-03  0.26152E-03  0.24056E-03  0.71497E-03  0.11584E-02
  0.15026E-02  0.17174E-02  0.17986E-02  0.17628E-02  0.16452E-02  0.14926E-02
  0.13504E-02  0.12569E-02  0.12474E-02  0.13588E-02  0.16235E-02  0.20612E-02
  0.26770E-02  0.34629E-02  0.43931E-02  0.54145E-02  0.64466E-02  0.74009E-02
  0.82089E-02  0.88373E-02  0.92813E-02  0.95457E-02  0.96337E-02  0.95457E-02
  0.92813E-02  0.88373E-02  0.82089E-02  0.74009E-02  0.64466E-02  0.54145E-02
  0.43931E-02  0.34629E-02  0.26770E-02  0.20612E-02  0.16235E-02  0.13588E-02
  0.12474E-02  0.12569E-02  0.13504E-02  0.14926E-02  0.16452E-02  0.17628E-02
  0.17986E-02  0.17174E-02  0.15026E-02  0.11584E-02  0.71497E-03  0.24056E-03
  0.45430E-03  0.20713E-03  0.17003E-03  0.56648E-03  0.99614E-03  0.13862E-02
  0.16828E-02  0.18557E-02  0.18986E-02  0.18261E-02  0.16713E-02  0.14773E-02
  0.12837E-02  0.11219E-02  0.10247E-02  0.10322E-02  0.11829E-02  0.15003E-02
  0.19910E-02  0.26500E-02  0.34629E-02  0.43960E-02  0.53895E-02  0.63665E-02
  0.72549E-02  0.80011E-02  0.85673E-02  0.89233E-02  0.90451E-02  0.89233E-02
  0.85673E-02  0.80011E-02  0.72549E-02  0.63665E-02  0.53895E-02  0.43960E-02
  0.34629E-02  0.26500E-02  0.19910E-02  0.15003E-02  0.11829E-02  0.10322E-02
  0.10247E-02  0.11219E-02  0.12837E-02  0.14773E-02  0.16713E-02  0.18261E-02
  0.18986E-02  0.18557E-02  0.16828E-02  0.13862E-02  0.99614E-03  0.56648E-03
  0.91562E-04  0.22888E-03  0.52020E-03  0.87485E-03  0.12521E-02  0.15957E-02
  0.18542E-02  0.19982E-02  0.20210E-02  0.19337E-02  0.17617E-02  0.15404E-02
  0.13058E-02  0.10893E-02  0.92253E-03  0.84354E-03  0.89072E-03  0.10915E-02
  0.14584E-02  0.19910E-02  0.26770E-02  0.34889E-02  0.43807E-02  0.52921E-02
  0.61581E-02  0.69164E-02  0.75096E-02  0.78885E-02  0.80190E-02  0.78885E-02
  0.75096E-02  0.69164E-02  0.61581E-02  0.52921E-02  0.43807E-02  0.34889E-02
  0.26770E-02  0.19910E-02  0.14584E-02  0.10915E-02  0.89072E-03  0.84354E-03
  0.92253E-03  0.10893E-02  0.13058E-02  0.15404E-02  0.17617E-02  0.19337E-02
  0.20210E-02  0.19982E-02  0.18542E-02  0.15957E-02  0.12521E-02  0.87485E-03
  0.39073E-03  0.58569E-03  0.83360E-03  0.11326E-02  0.14575E-02  0.17606E-02
  0.19941E-02  0.21287E-02  0.21539E-02  0.20725E-02  0.18995E-02  0.16641E-02
  0.14026E-02  0.11495E-02  0.93523E-03  0.79152E-03  0.75157E-03  0.84454E-03
  0.10915E-02  0.15003E-02  0.20612E-02  0.27466E-02  0.35164E-02  0.43217E-02
  0.51072E-02  0.58101E-02  0.63663E-02  0.67223E-02  0.68446E-02  0.67223E-02
  0.63663E-02  0.58101E-02  0.51072E-02  0.43217E-02  0.35164E-02  0.27466E-02
  0.20612E-02  0.15003E-02  0.10915E-02  0.84454E-03  0.75156E-03  0.79152E-03
  0.93523E-03  0.11495E-02  0.14026E-02  0.16641E-02  0.18995E-02  0.20725E-02
  0.21539E-02  0.21287E-02  0.19941E-02  0.17606E-02  0.14575E-02  0.11326E-02
  0.74426E-03  0.90030E-03  0.10967E-02  0.13380E-02  0.16099E-02  0.18759E-02
  0.20941E-02  0.22340E-02  0.22782E-02  0.22189E-02  0.20611E-02  0.18288E-02
  0.15590E-02  0.12883E-02  0.10457E-02  0.85679E-03  0.74910E-03  0.75157E-03
  0.89072E-03  0.11829E-02  0.16235E-02  0.21869E-02  0.28349E-02  0.35250E-02
  0.42086E-02  0.48272E-02  0.53185E-02  0.56322E-02  0.57395E-02  0.56322E-02
  0.53185E-02  0.48272E-02  0.42086E-02  0.35250E-02  0.28349E-02  0.21869E-02
  0.16235E-02  0.11829E-02  0.89072E-03  0.75156E-03  0.74910E-03  0.85679E-03
  0.10457E-02  0.12883E-02  0.15590E-02  0.18288E-02  0.20611E-02  0.22189E-02
  0.22782E-02  0.22340E-02  0.20941E-02  0.18759E-02  0.16099E-02  0.13380E-02
  0.10454E-02  0.11605E-02  0.13074E-02  0.14929E-02  0.17127E-02  0.19424E-02