       #
       # Generated by the Wannier90 code http://www.wannier.org
       # On 10May2024 at 21:04:43 
       #
CRYSTAL
PRIMVEC
   2.7281430   0.0000000   0.0000000
   0.0000000   2.7281430   0.0000000
   0.0000000   0.0000000   3.7789840
CONVVEC
   2.7281430   0.0000000   0.0000000
   0.0000000   2.7281430   0.0000000
   0.0000000   0.0000000   3.7789840
PRIMCOORD
     2  1
Fe      0.0000000   0.0000000   0.0000000
Pt      1.3640715   1.3640715   1.8894920


BEGIN_BLOCK_DATAGRID_3D
3D_field
BEGIN_DATAGRID_3D_UNKNOWN
    54    54    80
   -2.829185   -2.829185   -3.873459
   5.3552437   0.0000000   0.0000000
   0.0000000   5.3552437   0.0000000
   0.0000000   0.0000000   7.4634934
  0.35281E-03  0.90092E-03  0.15787E-02  0.18190E-02  0.15272E-02  0.90553E-03
  0.26903E-03  0.19249E-03  0.39021E-03  0.41608E-03  0.34416E-03  0.22140E-03
  0.83732E-04  0.12374E-03  0.26880E-03  0.38939E-03  0.46392E-03  0.48357E-03
  0.44814E-03  0.35757E-03  0.21739E-03  0.12167E-03  0.16719E-03  0.56998E-04
  0.47140E-03  0.12428E-02  0.19997E-02  0.23771E-02  0.21879E-02  0.15470E-02
  0.78034E-03  0.27229E-03  0.35174E-03  0.45137E-03  0.45896E-03  0.42721E-03
  0.37414E-03  0.30562E-03  0.24197E-03  0.20874E-03  0.20581E-03  0.21138E-03
  0.21138E-03  0.20581E-03  0.20874E-03  0.24197E-03  0.30562E-03  0.37414E-03
  0.42721E-03  0.45896E-03  0.45137E-03  0.35174E-03  0.27229E-03  0.78033E-03
  0.90092E-03  0.39320E-03  0.96283E-03  0.13968E-02  0.13162E-02  0.85238E-03
  0.29879E-03  0.13222E-03  0.33218E-03  0.37316E-03  0.32215E-03  0.22646E-03
  0.11984E-03  0.99117E-04  0.18983E-03  0.27121E-03  0.31152E-03  0.30329E-03
  0.25004E-03  0.16463E-03  0.12620E-03  0.22220E-03  0.25408E-03  0.59112E-04
  0.54379E-03  0.13330E-02  0.20214E-02  0.22552E-02  0.18972E-02  0.11329E-02
  0.39010E-03  0.41609E-03  0.59131E-03  0.55073E-03  0.41620E-03  0.27959E-03
  0.17220E-03  0.12695E-03  0.17664E-03  0.25208E-03  0.30913E-03  0.33771E-03
  0.33771E-03  0.30913E-03  0.25208E-03  0.17664E-03  0.12695E-03  0.17220E-03
  0.27959E-03  0.41620E-03  0.55073E-03  0.59131E-03  0.41609E-03  0.39010E-03
  0.15787E-02  0.96283E-03  0.54617E-03  0.81440E-03  0.88611E-03  0.61879E-03
  0.22152E-03  0.11553E-03  0.28217E-03  0.32186E-03  0.28637E-03  0.21546E-03
  0.13797E-03  0.10555E-03  0.14507E-03  0.18781E-03  0.19781E-03  0.17029E-03
  0.12504E-03  0.13466E-03  0.23385E-03  0.33491E-03  0.32286E-03  0.94072E-04
  0.48680E-03  0.11738E-02  0.17076E-02  0.17888E-02  0.13435E-02  0.62033E-03
  0.41485E-03  0.74089E-03  0.78043E-03  0.58797E-03  0.32491E-03  0.10184E-03
  0.12823E-03  0.27643E-03  0.40571E-03  0.50610E-03  0.57146E-03  0.60241E-03
  0.60241E-03  0.57146E-03  0.50610E-03  0.40571E-03  0.27643E-03  0.12823E-03
  0.10184E-03  0.32491E-03  0.58797E-03  0.78043E-03  0.74089E-03  0.41485E-03
  0.18190E-02  0.13968E-02  0.81440E-03  0.51477E-03  0.49151E-03  0.35191E-03
  0.11008E-03  0.11895E-03  0.23613E-03  0.26602E-03  0.24226E-03  0.19303E-03
  0.14094E-03  0.11687E-03  0.13016E-03  0.14423E-03  0.13577E-03  0.11689E-03
  0.14297E-03  0.23302E-03  0.34512E-03  0.42526E-03  0.39323E-03  0.17471E-03
  0.31261E-03  0.83614E-03  0.12042E-02  0.11961E-02  0.81237E-03  0.47028E-03
  0.71885E-03  0.90391E-03  0.79260E-03  0.48873E-03  0.15219E-03  0.16990E-03
  0.39136E-03  0.56783E-03  0.70749E-03  0.81056E-03  0.87551E-03  0.90562E-03
  0.90562E-03  0.87551E-03  0.81056E-03  0.70749E-03  0.56783E-03  0.39136E-03
  0.16990E-03  0.15219E-03  0.48873E-03  0.79260E-03  0.90391E-03  0.71885E-03
  0.15272E-02  0.13162E-02  0.88612E-03  0.49151E-03  0.28901E-03  0.16696E-03
  0.36421E-04  0.11887E-03  0.19293E-03  0.21372E-03  0.19961E-03  0.16801E-03
  0.13611E-03  0.12339E-03  0.12844E-03  0.12853E-03  0.11763E-03  0.13047E-03
  0.20382E-03  0.31512E-03  0.42885E-03  0.50216E-03  0.47697E-03  0.30344E-03
  0.11103E-03  0.43393E-03  0.67754E-03  0.66876E-03  0.49714E-03  0.56004E-03
  0.77947E-03  0.80866E-03  0.59620E-03  0.25196E-03  0.16796E-03  0.46095E-03
  0.69982E-03  0.88454E-03  0.10260E-02  0.11270E-02  0.11890E-02  0.12172E-02
  0.12172E-02  0.11890E-02  0.11270E-02  0.10260E-02  0.88454E-03  0.69982E-03
  0.46095E-03  0.16796E-03  0.25196E-03  0.59620E-03  0.80866E-03  0.77947E-03
  0.90554E-03  0.85238E-03  0.61879E-03  0.35191E-03  0.16696E-03  0.61342E-04
  0.39099E-04  0.11181E-03  0.15808E-03  0.17341E-03  0.16637E-03  0.14763E-03
  0.13112E-03  0.12821E-03  0.13111E-03  0.12418E-03  0.11418E-03  0.14673E-03
  0.24015E-03  0.36406E-03  0.48603E-03  0.56926E-03  0.57089E-03  0.45874E-03
  0.24893E-03  0.12019E-03  0.24916E-03  0.30245E-03  0.35495E-03  0.50451E-03
  0.59879E-03  0.51527E-03  0.26834E-03  0.17165E-03  0.48795E-03  0.78349E-03
  0.10195E-02  0.12022E-02  0.13397E-02  0.14355E-02  0.14930E-02  0.15187E-02
  0.15187E-02  0.14930E-02  0.14355E-02  0.13397E-02  0.12022E-02  0.10195E-02
  0.78349E-03  0.48795E-03  0.17165E-03  0.26834E-03  0.51527E-03  0.59879E-03
  0.26903E-03  0.29879E-03  0.22152E-03  0.11008E-03  0.36421E-04  0.39100E-04
  0.72770E-04  0.11152E-03  0.13914E-03  0.14973E-03  0.14616E-03  0.13659E-03
  0.13242E-03  0.13722E-03  0.13889E-03  0.12542E-03  0.10910E-03  0.14465E-03
  0.24698E-03  0.38119E-03  0.51635E-03  0.61997E-03  0.65824E-03  0.60798E-03
  0.47641E-03  0.31548E-03  0.21193E-03  0.21811E-03  0.28638E-03  0.34471E-03
  0.31721E-03  0.18150E-03  0.20695E-03  0.50737E-03  0.82429E-03  0.11018E-02
  0.13267E-02  0.15014E-02  0.16310E-02  0.17195E-02  0.17719E-02  0.17952E-02
  0.17952E-02  0.17719E-02  0.17195E-02  0.16310E-02  0.15014E-02  0.13267E-02
  0.11018E-02  0.82429E-03  0.50737E-03  0.20695E-03  0.18150E-03  0.31721E-03
  0.19249E-03  0.13222E-03  0.11553E-03  0.11895E-03  0.11887E-03  0.11181E-03
  0.11152E-03  0.12325E-03  0.13605E-03  0.14100E-03  0.13843E-03  0.13586E-03
  0.14113E-03  0.15117E-03  0.15224E-03  0.13350E-03  0.10492E-03  0.12756E-03
  0.23013E-03  0.37089E-03  0.51864E-03  0.64417E-03  0.71878E-03  0.72221E-03
  0.65371E-03  0.53878E-03  0.42040E-03  0.33200E-03  0.27006E-03  0.19783E-03
  0.11667E-03  0.24543E-03  0.52063E-03  0.83005E-03  0.11281E-02  0.13889E-02
  0.16017E-02  0.17659E-02  0.18855E-02  0.19658E-02  0.20128E-02  0.20337E-02
  0.20337E-02  0.20128E-02  0.19658E-02  0.18855E-02  0.17659E-02  0.16017E-02
  0.13889E-02  0.11281E-02  0.83005E-03  0.52063E-03  0.24543E-03  0.11667E-03
  0.39021E-03  0.33218E-03  0.28217E-03  0.23613E-03  0.19293E-03  0.15808E-03
  0.13914E-03  0.13605E-03  0.13890E-03  0.13881E-03  0.13596E-03  0.13757E-03
  0.14825E-03  0.16181E-03  0.16471E-03  0.14585E-03  0.10883E-03  0.10728E-03
  0.19966E-03  0.34081E-03  0.49574E-03  0.63731E-03  0.73999E-03  0.78411E-03
  0.76159E-03  0.68007E-03  0.55985E-03  0.42077E-03  0.26964E-03  0.12513E-03
  0.21596E-03  0.47942E-03  0.78311E-03  0.10916E-02  0.13796E-02  0.16294E-02
  0.18313E-02  0.19843E-02  0.20932E-02  0.21650E-02  0.22067E-02  0.22252E-02
  0.22252E-02  0.22067E-02  0.21650E-02  0.20932E-02  0.19843E-02  0.18313E-02
  0.16294E-02  0.13796E-02  0.10916E-02  0.78311E-03  0.47942E-03  0.21596E-03
  0.41608E-03  0.37316E-03  0.32186E-03  0.26602E-03  0.21372E-03  0.17341E-03
  0.14973E-03  0.14100E-03  0.13881E-03  0.13500E-03  0.13011E-03  0.13168E-03
  0.14380E-03  0.16031E-03  0.16823E-03  0.15529E-03  0.11961E-03  0.96966E-04
  0.16726E-03  0.30084E-03  0.45521E-03  0.60351E-03  0.72193E-03  0.79101E-03
  0.79793E-03  0.73895E-03  0.62035E-03  0.45414E-03  0.25520E-03  0.12983E-03
  0.34983E-03  0.65792E-03  0.98054E-03  0.12929E-02  0.15769E-02  0.18184E-02
  0.20096E-02  0.21509E-02  0.22491E-02  0.23128E-02  0.23493E-02  0.23653E-02
  0.23653E-02  0.23493E-02  0.23128E-02  0.22491E-02  0.21509E-02  0.20096E-02
  0.18184E-02  0.15769E-02  0.12929E-02  0.98054E-03  0.65792E-03  0.34983E-03
  0.34416E-03  0.32215E-03  0.28637E-03  0.24226E-03  0.19961E-03  0.16637E-03
  0.14616E-03  0.13843E-03  0.13596E-03  0.13011E-03  0.12116E-03  0.11801E-03
  0.12763E-03  0.14626E-03  0.16107E-03  0.15793E-03  0.13109E-03  0.10146E-03
  0.14319E-03  0.26025E-03  0.40622E-03  0.55215E-03  0.67441E-03  0.75352E-03
  0.77435E-03  0.72723E-03  0.61062E-03  0.43195E-03  0.21400E-03  0.17647E-03
  0.46256E-03  0.79606E-03  0.11309E-02  0.14457E-02  0.17250E-02  0.19571E-02
  0.21365E-02  0.22658E-02  0.23535E-02  0.24090E-02  0.24402E-02  0.24536E-02
  0.24536E-02  0.24402E-02  0.24090E-02  0.23535E-02  0.22658E-02  0.21365E-02
  0.19571E-02  0.17250E-02  0.14457E-02  0.11309E-02  0.79606E-03  0.46257E-03
  0.22140E-03  0.22646E-03  0.21546E-03  0.19303E-03  0.16801E-03  0.14763E-03
  0.13659E-03  0.13586E-03  0.13757E-03  0.13168E-03  0.11801E-03  0.10635E-03
  0.10832E-03  0.12599E-03  0.14694E-03  0.15443E-03  0.13982E-03  0.11517E-03
  0.13398E-03  0.22673E-03  0.35724E-03  0.49359E-03  0.61097E-03  0.68931E-03
  0.71244E-03  0.66814E-03  0.55115E-03  0.36687E-03  0.15186E-03  0.24468E-03
  0.56359E-03  0.90824E-03  0.12461E-02  0.15574E-02  0.18281E-02  0.20486E-02
  0.22151E-02  0.23320E-02  0.24088E-02  0.24557E-02  0.24809E-02  0.24913E-02
  0.24913E-02  0.24809E-02  0.24557E-02  0.24088E-02  0.23320E-02  0.22151E-02
  0.20486E-02  0.18281E-02  0.15574E-02  0.12461E-02  0.90824E-03  0.56359E-03
  0.83732E-04  0.11984E-03  0.13797E-03  0.14094E-03  0.13611E-03  0.13112E-03
  0.13242E-03  0.14113E-03  0.14825E-03  0.14380E-03  0.12763E-03  0.10832E-03
  0.98426E-04  0.10839E-03  0.13102E-03  0.14711E-03  0.14500E-03  0.13101E-03
  0.13934E-03  0.20598E-03  0.31546E-03  0.43671E-03  0.54352E-03  0.61491E-03
  0.63397E-03  0.58725E-03  0.46790E-03  0.28105E-03  0.10257E-03  0.32235E-03
  0.65265E-03  0.99697E-03  0.13291E-02  0.16306E-02  0.18889E-02  0.20956E-02
  0.22484E-02  0.23521E-02  0.24171E-02  0.24542E-02  0.24726E-02  0.24794E-02
  0.24794E-02  0.24726E-02  0.24542E-02  0.24171E-02  0.23521E-02  0.22484E-02
  0.20956E-02  0.18889E-02  0.16306E-02  0.13291E-02  0.99697E-03  0.65265E-03
  0.12374E-03  0.99117E-04  0.10555E-03  0.11687E-03  0.12339E-03  0.12821E-03
  0.13722E-03  0.15117E-03  0.16181E-03  0.16032E-03  0.14626E-03  0.12599E-03
  0.10839E-03  0.10567E-03  0.12175E-03  0.14099E-03  0.14868E-03  0.14585E-03
  0.15286E-03  0.19880E-03  0.28488E-03  0.38709E-03  0.47945E-03  0.54050E-03
  0.55263E-03  0.50155E-03  0.37956E-03  0.19286E-03  0.11679E-03  0.39732E-03
  0.72613E-03  0.10622E-02  0.13824E-02  0.16693E-02  0.19114E-02  0.21017E-02
  0.22387E-02  0.23279E-02  0.23798E-02  0.24060E-02  0.24164E-02  0.24192E-02
  0.24192E-02  0.24164E-02  0.24060E-02  0.23798E-02  0.23279E-02  0.22387E-02
  0.21017E-02  0.19114E-02  0.16693E-02  0.13824E-02  0.10622E-02  0.72613E-03
  0.26880E-03  0.18983E-03  0.14507E-03  0.13016E-03  0.12844E-03  0.13111E-03
  0.13889E-03  0.15224E-03  0.16471E-03  0.16823E-03  0.16107E-03  0.14694E-03
  0.13102E-03  0.12175E-03  0.12781E-03  0.14349E-03  0.15540E-03  0.15999E-03
  0.16799E-03  0.19975E-03  0.26390E-03  0.34559E-03  0.42150E-03  0.47048E-03
  0.47461E-03  0.41899E-03  0.29552E-03  0.11436E-03  0.17373E-03  0.46333E-03
  0.78350E-03  0.11067E-02  0.14109E-02  0.16794E-02  0.19016E-02  0.20719E-02
  0.21900E-02  0.22622E-02  0.22995E-02  0.23138E-02  0.23158E-02  0.23141E-02
  0.23141E-02  0.23158E-02  0.23138E-02  0.22995E-02  0.22622E-02  0.21900E-02
  0.20719E-02  0.19016E-02  0.16794E-02  0.14109E-02  0.11067E-02  0.78350E-03
  0.38939E-03  0.27121E-03  0.18782E-03  0.14423E-03  0.12853E-03  0.12418E-03
  0.12542E-03  0.13350E-03  0.14585E-03  0.15529E-03  0.15793E-03  0.15443E-03
  0.14711E-03  0.14098E-03  0.14349E-03  0.15465E-03  0.16603E-03  0.17271E-03
  0.17965E-03  0.20071E-03  0.24648E-03  0.30938E-03  0.36977E-03  0.40745E-03
  0.40451E-03  0.34597E-03  0.22448E-03  0.72639E-04  0.23488E-03  0.51700E-03
  0.82442E-03  0.11320E-02  0.14178E-02  0.16654E-02  0.18646E-02  0.20114E-02
  0.21073E-02  0.21601E-02  0.21813E-02  0.21830E-02  0.21761E-02  0.21697E-02
  0.21697E-02  0.21761E-02  0.21830E-02  0.21813E-02  0.21601E-02  0.21073E-02
  0.20114E-02  0.18646E-02  0.16654E-02  0.14178E-02  0.11320E-02  0.82442E-03
  0.46392E-03  0.31152E-03  0.19781E-03  0.13577E-03  0.11763E-03  0.11418E-03
  0.10910E-03  0.10492E-03  0.10883E-03  0.11961E-03  0.13109E-03  0.13982E-03
  0.14500E-03  0.14868E-03  0.15540E-03  0.16603E-03  0.17574E-03  0.18081E-03
  0.18385E-03  0.19529E-03  0.22644E-03  0.27477E-03  0.32381E-03  0.35408E-03
  0.34786E-03  0.29093E-03  0.17990E-03  0.99663E-04  0.28551E-03  0.55359E-03
  0.84545E-03  0.11353E-02  0.14011E-02  0.16264E-02  0.18013E-02  0.19230E-02
  0.19950E-02  0.20266E-02  0.20305E-02  0.20188E-02  0.20025E-02  0.19913E-02
  0.19913E-02  0.20025E-02  0.20188E-02  0.20305E-02  0.20266E-02  0.19950E-02
  0.19230E-02  0.18013E-02  0.16264E-02  0.14011E-02  0.11353E-02  0.84545E-03
  0.48357E-03  0.30330E-03  0.17029E-03  0.11689E-03  0.13047E-03  0.14673E-03
  0.14465E-03  0.12756E-03  0.10728E-03  0.96966E-04  0.10146E-03  0.11517E-03
  0.13101E-03  0.14585E-03  0.15999E-03  0.17271E-03  0.18081E-03  0.18211E-03
  0.17904E-03  0.18091E-03  0.20050E-03  0.23938E-03  0.28299E-03  0.31183E-03
  0.30835E-03  0.26000E-03  0.17124E-03  0.14628E-03  0.31920E-03  0.56902E-03
  0.84298E-03  0.11134E-02  0.13579E-02  0.15600E-02  0.17104E-02  0.18070E-02
  0.18547E-02  0.18646E-02  0.18502E-02  0.18246E-02  0.17990E-02  0.17831E-02
  0.17831E-02  0.17990E-02  0.18246E-02  0.18502E-02  0.18646E-02  0.18547E-02
  0.18070E-02  0.17104E-02  0.15600E-02  0.13579E-02  0.11134E-02  0.84298E-03
  0.44814E-03  0.25004E-03  0.12504E-03  0.14297E-03  0.20382E-03  0.24014E-03
  0.24698E-03  0.23012E-03  0.19966E-03  0.16726E-03  0.14319E-03  0.13398E-03
  0.13934E-03  0.15286E-03  0.16799E-03  0.17965E-03  0.18385E-03  0.17904E-03
  0.16779E-03  0.15924E-03  0.16885E-03  0.20267E-03  0.24656E-03  0.27988E-03
  0.28513E-03  0.25164E-03  0.18921E-03  0.18525E-03  0.33356E-03  0.56132E-03
  0.81559E-03  0.10656E-02  0.12879E-02  0.14663E-02  0.15920E-02  0.16636E-02
  0.16874E-02  0.16758E-02  0.16436E-02  0.16045E-02  0.15700E-02  0.15497E-02
  0.15497E-02  0.15700E-02  0.16045E-02  0.16436E-02  0.16758E-02  0.16874E-02
  0.16636E-02  0.15920E-02  0.14663E-02  0.12879E-02  0.10656E-02  0.81559E-03
  0.35757E-03  0.16463E-03  0.13466E-03  0.23302E-03  0.31512E-03  0.36406E-03
  0.38119E-03  0.37089E-03  0.34081E-03  0.30084E-03  0.26025E-03  0.22673E-03
  0.20598E-03  0.19880E-03  0.19975E-03  0.20071E-03  0.19529E-03  0.18091E-03
  0.15924E-03  0.13837E-03  0.13676E-03  0.16712E-03  0.21458E-03  0.25589E-03
  0.27330E-03  0.25681E-03  0.21447E-03  0.20856E-03  0.32405E-03  0.52595E-03
  0.76001E-03  0.99085E-03  0.11924E-02  0.13476E-02  0.14485E-02  0.14953E-02
  0.14961E-02  0.14646E-02  0.14165E-02  0.13655E-02  0.13233E-02  0.12993E-02
  0.12993E-02  0.13233E-02  0.13655E-02  0.14165E-02  0.14646E-02  0.14961E-02
  0.14953E-02  0.14485E-02  0.13476E-02  0.11924E-02  0.99085E-03  0.76001E-03
  0.21739E-03  0.12620E-03  0.23385E-03  0.34512E-03  0.42885E-03  0.48603E-03
  0.51635E-03  0.51864E-03  0.49574E-03  0.45521E-03  0.40622E-03  0.35724E-03
  0.31546E-03  0.28488E-03  0.26390E-03  0.24648E-03  0.22644E-03  0.20050E-03
  0.16885E-03  0.13676E-03  0.12117E-03  0.14249E-03  0.18965E-03  0.23682E-03
  0.26520E-03  0.26341E-03  0.23264E-03  0.21057E-03  0.28203E-03  0.45297E-03
  0.66763E-03  0.88329E-03  0.10689E-02  0.12048E-02  0.12833E-02  0.13072E-02
  0.12872E-02  0.12388E-02  0.11777E-02  0.11176E-02  0.10695E-02  0.10427E-02
  0.10427E-02  0.10695E-02  0.11176E-02  0.11777E-02  0.12388E-02  0.12872E-02
  0.13072E-02  0.12833E-02  0.12048E-02  0.10689E-02  0.88329E-03  0.66763E-03
  0.12167E-03  0.22220E-03  0.33491E-03  0.42526E-03  0.50216E-03  0.56926E-03
  0.61997E-03  0.64417E-03  0.63731E-03  0.60351E-03  0.55215E-03  0.49359E-03
  0.43672E-03  0.38709E-03  0.34559E-03  0.30938E-03  0.27477E-03  0.23938E-03
  0.20267E-03  0.16712E-03  0.14249E-03  0.14528E-03  0.17710E-03  0.21892E-03
  0.25143E-03  0.26046E-03  0.23839E-03  0.19695E-03  0.20647E-03  0.33493E-03
  0.53049E-03  0.73620E-03  0.91317E-03  0.10371E-02  0.10994E-02  0.11053E-02
  0.10688E-02  0.10072E-02  0.93699E-03  0.87111E-03  0.82003E-03  0.79203E-03
  0.79203E-03  0.82003E-03  0.87111E-03  0.93699E-03  0.10072E-02  0.10688E-02
  0.11053E-02  0.10994E-02  0.10371E-02  0.91317E-03  0.73620E-03  0.53049E-03
  0.16719E-03  0.25408E-03  0.32286E-03  0.39323E-03  0.47697E-03  0.57089E-03
  0.65824E-03  0.71878E-03  0.73999E-03  0.72193E-03  0.67441E-03  0.61097E-03
  0.54352E-03  0.47946E-03  0.42150E-03  0.36977E-03  0.32381E-03  0.28299E-03
  0.24656E-03  0.21458E-03  0.18965E-03  0.17710E-03  0.18105E-03  0.19930E-03
  0.22372E-03  0.24244E-03  0.24062E-03  0.20525E-03  0.15011E-03  0.18835E-03
  0.35450E-03  0.55240E-03  0.72685E-03  0.84669E-03  0.90112E-03  0.89637E-03
  0.84901E-03  0.77878E-03  0.70343E-03  0.63638E-03  0.58684E-03  0.56068E-03
  0.56068E-03  0.58684E-03  0.63638E-03  0.70344E-03  0.77878E-03  0.84901E-03
  0.89637E-03  0.90112E-03  0.84669E-03  0.72685E-03  0.55240E-03  0.35450E-03
  0.56998E-04  0.59112E-04  0.94072E-04  0.17471E-03  0.30344E-03  0.45874E-03
  0.60798E-03  0.72221E-03  0.78411E-03  0.79101E-03  0.75352E-03  0.68931E-03
  0.61491E-03  0.54050E-03  0.47048E-03  0.40745E-03  0.35408E-03  0.31183E-03
  0.27988E-03  0.25589E-03  0.23682E-03  0.21892E-03  0.19930E-03  0.18226E-03
  0.18690E-03  0.22686E-03  0.27677E-03  0.29427E-03  0.25151E-03  0.16519E-03
  0.18604E-03  0.35313E-03  0.52423E-03  0.64442E-03  0.69748E-03  0.68918E-03
  0.63726E-03  0.56348E-03  0.48824E-03  0.42663E-03  0.38611E-03  0.36704E-03
  0.36704E-03  0.38611E-03  0.42663E-03  0.48824E-03  0.56348E-03  0.63726E-03
  0.68918E-03  0.69748E-03  0.64442E-03  0.52423E-03  0.35313E-03  0.18604E-03
  0.47140E-03  0.54379E-03  0.48680E-03  0.31261E-03  0.11104E-03  0.24893E-03
  0.47641E-03  0.65371E-03  0.76159E-03  0.79793E-03  0.77435E-03  0.71244E-03
  0.63397E-03  0.55263E-03  0.47461E-03  0.40451E-03  0.34786E-03  0.30835E-03
  0.28513E-03  0.27330E-03  0.26520E-03  0.25143E-03  0.22372E-03  0.18690E-03
  0.19013E-03  0.27885E-03  0.39506E-03  0.46787E-03  0.45511E-03  0.35204E-03
  0.20651E-03  0.19109E-03  0.33092E-03  0.44953E-03  0.50377E-03  0.49658E-03
  0.44615E-03  0.37550E-03  0.30826E-03  0.26309E-03  0.24414E-03  0.24037E-03
  0.24037E-03  0.24414E-03  0.26309E-03  0.30826E-03  0.37550E-03  0.44615E-03
  0.49658E-03  0.50377E-03  0.44953E-03  0.33092E-03  0.19109E-03  0.20651E-03
  0.12428E-02  0.13330E-02  0.11738E-02  0.83614E-03  0.43393E-03  0.12019E-03
  0.31548E-03  0.53878E-03  0.68007E-03  0.73895E-03  0.72723E-03  0.66814E-03
  0.58725E-03  0.50155E-03  0.41899E-03  0.34597E-03  0.29093E-03  0.26000E-03
  0.25164E-03  0.25681E-03  0.26341E-03  0.26046E-03  0.24244E-03  0.22686E-03
  0.27885E-03  0.42063E-03  0.58118E-03  0.68344E-03  0.68013E-03  0.56568E-03
  0.37444E-03  0.18448E-03  0.17796E-03  0.28336E-03  0.33904E-03  0.33545E-03
  0.29249E-03  0.23480E-03  0.18984E-03  0.17892E-03  0.19316E-03  0.20726E-03
  0.20726E-03  0.19316E-03  0.17892E-03  0.18984E-03  0.23480E-03  0.29249E-03
  0.33545E-03  0.33904E-03  0.28336E-03  0.17796E-03  0.18448E-03  0.37444E-03
  0.19997E-02  0.20214E-02  0.17076E-02  0.12042E-02  0.67754E-03  0.24916E-03
  0.21193E-03  0.42040E-03  0.55985E-03  0.62035E-03  0.61062E-03  0.55115E-03
  0.46790E-03  0.37956E-03  0.29552E-03  0.22448E-03  0.17990E-03  0.17124E-03
  0.18921E-03  0.21447E-03  0.23264E-03  0.23839E-03  0.24062E-03  0.27677E-03
  0.39506E-03  0.58118E-03  0.76731E-03  0.88076E-03  0.87669E-03  0.75139E-03
  0.53653E-03  0.28946E-03  0.11014E-03  0.16077E-03  0.22153E-03  0.22518E-03
  0.19748E-03  0.16722E-03  0.15940E-03  0.18032E-03  0.21029E-03  0.22972E-03
  0.22972E-03  0.21029E-03  0.18032E-03  0.15940E-03  0.16722E-03  0.19748E-03
  0.22518E-03  0.22153E-03  0.16077E-03  0.11014E-03  0.28946E-03  0.53653E-03
  0.23771E-02  0.22552E-02  0.17888E-02  0.11961E-02  0.66876E-03  0.30245E-03
  0.21811E-03  0.33200E-03  0.42077E-03  0.45414E-03  0.43195E-03  0.36687E-03
  0.28105E-03  0.19286E-03  0.11436E-03  0.72638E-04  0.99663E-04  0.14628E-03
  0.18525E-03  0.20856E-03  0.21057E-03  0.19695E-03  0.20525E-03  0.29427E-03
  0.46787E-03  0.68344E-03  0.88076E-03  0.99951E-03  0.10021E-02  0.88219E-03
  0.66121E-03  0.38839E-03  0.13912E-03  0.89490E-04  0.16267E-03  0.17907E-03
  0.17202E-03  0.16918E-03  0.18044E-03  0.20493E-03  0.23202E-03  0.24918E-03
  0.24918E-03  0.23202E-03  0.20493E-03  0.18044E-03  0.16918E-03  0.17202E-03
  0.17908E-03  0.16267E-03  0.89490E-04  0.13912E-03  0.38839E-03  0.66122E-03
  0.21879E-02  0.18972E-02  0.13435E-02  0.81237E-03  0.49714E-03  0.35495E-03
  0.28638E-03  0.27006E-03  0.26964E-03  0.25520E-03  0.21400E-03  0.15186E-03
  0.10257E-03  0.11679E-03  0.17373E-03  0.23488E-03  0.28551E-03  0.31920E-03
  0.33356E-03  0.32405E-03  0.28203E-03  0.20647E-03  0.15011E-03  0.25151E-03
  0.45511E-03  0.68013E-03  0.87669E-03  0.10021E-02  0.10259E-02  0.93100E-03
  0.72184E-03  0.44180E-03  0.17243E-03  0.76365E-04  0.15367E-03  0.17950E-03
  0.18434E-03  0.18928E-03  0.19800E-03  0.21303E-03  0.23102E-03  0.24320E-03
  0.24320E-03  0.23102E-03  0.21303E-03  0.19800E-03  0.18928E-03  0.18434E-03
  0.17950E-03  0.15367E-03  0.76365E-04  0.17243E-03  0.44180E-03  0.72184E-03
  0.15470E-02  0.11329E-02  0.62034E-03  0.47028E-03  0.56004E-03  0.50451E-03
  0.34471E-03  0.19783E-03  0.12513E-03  0.12983E-03  0.17647E-03  0.24468E-03
  0.32235E-03  0.39732E-03  0.46333E-03  0.51700E-03  0.55359E-03  0.56902E-03
  0.56132E-03  0.52595E-03  0.45297E-03  0.33493E-03  0.18835E-03  0.16519E-03
  0.35204E-03  0.56568E-03  0.75139E-03  0.88219E-03  0.93100E-03  0.86757E-03
  0.68302E-03  0.41924E-03  0.16710E-03  0.99869E-04  0.16793E-03  0.19307E-03
  0.19905E-03  0.19971E-03  0.19763E-03  0.19871E-03  0.20441E-03  0.20953E-03
  0.20953E-03  0.20441E-03  0.19871E-03  0.19763E-03  0.19971E-03  0.19905E-03
  0.19307E-03  0.16793E-03  0.99869E-04  0.16710E-03  0.41924E-03  0.68302E-03
  0.78034E-03  0.39010E-03  0.41485E-03  0.71885E-03  0.77947E-03  0.59879E-03
  0.31721E-03  0.11667E-03  0.21596E-03  0.34983E-03  0.46256E-03  0.56359E-03
  0.65265E-03  0.72613E-03  0.78350E-03  0.82442E-03  0.84545E-03  0.84298E-03
  0.81559E-03  0.76001E-03  0.66763E-03  0.53049E-03  0.35450E-03  0.18604E-03
  0.20651E-03  0.37444E-03  0.53653E-03  0.66121E-03  0.72184E-03  0.68302E-03
  0.53338E-03  0.31589E-03  0.13125E-03  0.13496E-03  0.18769E-03  0.20587E-03
  0.20819E-03  0.20052E-03  0.18548E-03  0.17117E-03  0.16235E-03  0.15831E-03
  0.15831E-03  0.16235E-03  0.17117E-03  0.18548E-03  0.20052E-03  0.20819E-03
  0.20588E-03  0.18769E-03  0.13496E-03  0.13125E-03  0.31589E-03  0.53338E-03
  0.27229E-03  0.41609E-03  0.74089E-03  0.90391E-03  0.80866E-03  0.51527E-03
  0.18150E-03  0.24543E-03  0.47942E-03  0.65792E-03  0.79606E-03  0.90824E-03
  0.99697E-03  0.10622E-02  0.11067E-02  0.11320E-02  0.11353E-02  0.11134E-02
  0.10656E-02  0.99085E-03  0.88329E-03  0.73620E-03  0.55240E-03  0.35313E-03
  0.19109E-03  0.18448E-03  0.28946E-03  0.38839E-03  0.44180E-03  0.41924E-03
  0.31589E-03  0.17866E-03  0.12390E-03  0.17219E-03  0.20607E-03  0.21735E-03
  0.21565E-03  0.20052E-03  0.17546E-03  0.14905E-03  0.12685E-03  0.11276E-03
  0.11276E-03  0.12685E-03  0.14905E-03  0.17546E-03  0.20052E-03  0.21565E-03
  0.21735E-03  0.20607E-03  0.17219E-03  0.12390E-03  0.17866E-03  0.31589E-03
  0.35174E-03  0.59131E-03  0.78043E-03  0.79260E-03  0.59620E-03  0.26834E-03
  0.20695E-03  0.52063E-03  0.78311E-03  0.98054E-03  0.11309E-02  0.12461E-02
  0.13291E-02  0.13824E-02  0.14109E-02  0.14178E-02  0.14011E-02  0.13579E-02
  0.12879E-02  0.11924E-02  0.10689E-02  0.91317E-03  0.72685E-03  0.52423E-03
  0.33092E-03  0.17796E-03  0.11014E-03  0.13912E-03  0.17243E-03  0.16710E-03
  0.13125E-03  0.12390E-03  0.16499E-03  0.20231E-03  0.22153E-03  0.22902E-03
  0.22447E-03  0.20575E-03  0.17801E-03  0.14895E-03  0.12285E-03  0.10499E-03
  0.10499E-03  0.12285E-03  0.14895E-03  0.17801E-03  0.20575E-03  0.22447E-03
  0.22902E-03  0.22153E-03  0.20231E-03  0.16499E-03  0.12390E-03  0.13125E-03
  0.45137E-03  0.55073E-03  0.58797E-03  0.48873E-03  0.25196E-03  0.17165E-03
  0.50737E-03  0.83005E-03  0.10916E-02  0.12929E-02  0.14457E-02  0.15574E-02
  0.16306E-02  0.16693E-02  0.16794E-02  0.16654E-02  0.16264E-02  0.15600E-02
  0.14663E-02  0.13476E-02  0.12048E-02  0.10371E-02  0.84669E-03  0.64442E-03
  0.44953E-03  0.28336E-03  0.16077E-03  0.89490E-04  0.76365E-04  0.99869E-04
  0.13496E-03  0.17219E-03  0.20231E-03  0.22214E-03  0.23479E-03  0.23990E-03
  0.23325E-03  0.21507E-03  0.19125E-03  0.16741E-03  0.14639E-03  0.13257E-03
  0.13257E-03  0.14639E-03  0.16741E-03  0.19125E-03  0.21507E-03  0.23325E-03
  0.23990E-03  0.23480E-03  0.22214E-03  0.20231E-03  0.17219E-03  0.13496E-03
  0.45896E-03  0.41620E-03  0.32491E-03  0.15219E-03  0.16796E-03  0.48795E-03
  0.82429E-03  0.11281E-02  0.13796E-02  0.15769E-02  0.17250E-02  0.18281E-02
  0.18889E-02  0.19114E-02  0.19016E-02  0.18646E-02  0.18013E-02  0.17104E-02
  0.15920E-02  0.14485E-02  0.12833E-02  0.10994E-02  0.90112E-03  0.69748E-03
  0.50377E-03  0.33904E-03  0.22153E-03  0.16267E-03  0.15367E-03  0.16793E-03
  0.18769E-03  0.20607E-03  0.22153E-03  0.23479E-03  0.24449E-03  0.24650E-03
  0.23863E-03  0.22345E-03  0.20560E-03  0.18818E-03  0.17317E-03  0.16385E-03
  0.16385E-03  0.17317E-03  0.18818E-03  0.20560E-03  0.22345E-03  0.23863E-03
  0.24650E-03  0.24449E-03  0.23480E-03  0.22153E-03  0.20607E-03  0.18769E-03
  0.42721E-03  0.27959E-03  0.10184E-03  0.16990E-03  0.46095E-03  0.78349E-03
  0.11018E-02  0.13889E-02  0.16294E-02  0.18184E-02  0.19571E-02  0.20486E-02
  0.20956E-02  0.21017E-02  0.20719E-02  0.20114E-02  0.19230E-02  0.18070E-02
  0.16636E-02  0.14953E-02  0.13072E-02  0.11053E-02  0.89637E-03  0.68918E-03
  0.49658E-03  0.33545E-03  0.22518E-03  0.17907E-03  0.17950E-03  0.19307E-03
  0.20588E-03  0.21735E-03  0.22902E-03  0.23990E-03  0.24650E-03  0.24595E-03
  0.23843E-03  0.22647E-03  0.21275E-03  0.19928E-03  0.18831E-03  0.18217E-03
  0.18217E-03  0.18830E-03  0.19928E-03  0.21275E-03  0.22647E-03  0.23843E-03
  0.24595E-03  0.24650E-03  0.23990E-03  0.22902E-03  0.21735E-03  0.20587E-03
  0.37414E-03  0.17220E-03  0.12823E-03  0.39136E-03  0.69982E-03  0.10195E-02
  0.13267E-02  0.16017E-02  0.18313E-02  0.20096E-02  0.21365E-02  0.22151E-02
  0.22484E-02  0.22387E-02  0.21900E-02  0.21073E-02  0.19950E-02  0.18547E-02
  0.16874E-02  0.14961E-02  0.12872E-02  0.10688E-02  0.84901E-03  0.63726E-03
  0.44615E-03  0.29249E-03  0.19748E-03  0.17202E-03  0.18434E-03  0.19905E-03
  0.20819E-03  0.21565E-03  0.22447E-03  0.23325E-03  0.23863E-03  0.23843E-03
  0.23252E-03  0.22216E-03  0.20919E-03  0.19633E-03  0.18681E-03  0.18224E-03
  0.18224E-03  0.18681E-03  0.19633E-03  0.20919E-03  0.22216E-03  0.23252E-03
  0.23843E-03  0.23863E-03  0.23325E-03  0.22447E-03  0.21565E-03  0.20819E-03
  0.30562E-03  0.12695E-03  0.27643E-03  0.56783E-03  0.88454E-03  0.12022E-02
  0.15014E-02  0.17659E-02  0.19843E-02  0.21509E-02  0.22658E-02  0.23320E-02
  0.23521E-02  0.23279E-02  0.22622E-02  0.21601E-02  0.20266E-02  0.18646E-02
  0.16758E-02  0.14646E-02  0.12388E-02  0.10072E-02  0.77878E-03  0.56348E-03
  0.37550E-03  0.23480E-03  0.16722E-03  0.16918E-03  0.18928E-03  0.19971E-03
  0.20052E-03  0.20052E-03  0.20575E-03  0.21507E-03  0.22345E-03  0.22647E-03
  0.22216E-03  0.21114E-03  0.19604E-03  0.18101E-03  0.17024E-03  0.16532E-03
  0.16532E-03  0.17024E-03  0.18101E-03  0.19604E-03  0.21114E-03  0.22216E-03
  0.22647E-03  0.22345E-03  0.21507E-03  0.20575E-03  0.20052E-03  0.20052E-03
  0.24197E-03  0.17664E-03  0.40571E-03  0.70749E-03  0.10260E-02  0.13397E-02
  0.16310E-02  0.18855E-02  0.20932E-02  0.22491E-02  0.23535E-02  0.24088E-02
  0.24171E-02  0.23798E-02  0.22995E-02  0.21813E-02  0.20305E-02  0.18502E-02
  0.16436E-02  0.14165E-02  0.11777E-02  0.93699E-03  0.70343E-03  0.48824E-03
  0.30826E-03  0.18984E-03  0.15940E-03  0.18044E-03  0.19800E-03  0.19763E-03
  0.18548E-03  0.17546E-03  0.17801E-03  0.19125E-03  0.20560E-03  0.21275E-03
  0.20919E-03  0.19604E-03  0.17734E-03  0.15824E-03  0.14365E-03  0.13630E-03
  0.13630E-03  0.14365E-03  0.15824E-03  0.17734E-03  0.19604E-03  0.20919E-03
  0.21275E-03  0.20560E-03  0.19125E-03  0.17801E-03  0.17546E-03  0.18548E-03
  0.20874E-03  0.25208E-03  0.50610E-03  0.81056E-03  0.11270E-02  0.14355E-02
  0.17195E-02  0.19658E-02  0.21650E-02  0.23128E-02  0.24090E-02  0.24557E-02
  0.24542E-02  0.24060E-02  0.23138E-02  0.21830E-02  0.20188E-02  0.18246E-02
  0.16045E-02  0.13655E-02  0.11176E-02  0.87111E-03  0.63638E-03  0.42663E-03
  0.26309E-03  0.17892E-03  0.18032E-03  0.20493E-03  0.21303E-03  0.19871E-03
  0.17117E-03  0.14905E-03  0.14895E-03  0.16741E-03  0.18818E-03  0.19928E-03
  0.19633E-03  0.18101E-03  0.15824E-03  0.13361E-03  0.11264E-03  0.10053E-03
  0.10053E-03  0.11264E-03  0.13361E-03  0.15824E-03  0.18101E-03  0.19633E-03
  0.19928E-03  0.18818E-03  0.16741E-03  0.14895E-03  0.14905E-03  0.17117E-03
  0.20581E-03  0.30913E-03  0.57146E-03  0.87551E-03  0.11890E-02  0.14930E-02
  0.17719E-02  0.20128E-02  0.22067E-02  0.23493E-02  0.24402E-02  0.24809E-02
  0.24726E-02  0.24164E-02  0.23158E-02  0.21761E-02  0.20025E-02  0.17990E-02
  0.15700E-02  0.13233E-02  0.10695E-02  0.82003E-03  0.58684E-03  0.38611E-03
  0.24414E-03  0.19316E-03  0.21029E-03  0.23202E-03  0.23102E-03  0.20441E-03
  0.16235E-03  0.12685E-03  0.12285E-03  0.14638E-03  0.17317E-03  0.18830E-03
  0.18681E-03  0.17024E-03  0.14365E-03  0.11264E-03  0.82907E-04  0.62552E-04
  0.62551E-04  0.82906E-04  0.11264E-03  0.14365E-03  0.17024E-03  0.18681E-03
  0.18830E-03  0.17317E-03  0.14638E-03  0.12285E-03  0.12685E-03  0.16235E-03
  0.21138E-03  0.33771E-03  0.60241E-03  0.90562E-03  0.12172E-02  0.15187E-02