       #
       # Generated by the Wannier90 code http://www.wannier.org
       # On 10May2024 at 21:04:43 
       #
CRYSTAL
PRIMVEC
   2.7281430   0.0000000   0.0000000
   0.0000000   2.7281430   0.0000000
   0.0000000   0.0000000   3.7789840
CONVVEC
   2.7281430   0.0000000   0.0000000
   0.0000000   2.7281430   0.0000000
   0.0000000   0.0000000   3.7789840
PRIMCOORD
     2  1
Fe      0.0000000   0.0000000   0.0000000
Pt      1.3640715   1.3640715   1.8894920


BEGIN_BLOCK_DATAGRID_3D
3D_field
BEGIN_DATAGRID_3D_UNKNOWN
    54    54    80
   -2.829185   -2.829185   -3.873459
   5.3552437   0.0000000   0.0000000
   0.0000000   5.3552437   0.0000000
   0.0000000   0.0000000   7.4634934
  0.14228E-02  0.20189E-02  0.33265E-02  0.38652E-02  0.33551E-02  0.22444E-02
  0.11862E-02  0.57285E-03  0.41043E-03  0.45190E-03  0.50911E-03  0.53587E-03
  0.53193E-03  0.49831E-03  0.45497E-03  0.45422E-03  0.52417E-03  0.62297E-03
  0.66225E-03  0.53255E-03  0.29745E-03  0.71408E-03  0.13606E-02  0.18339E-02
  0.20712E-02  0.21656E-02  0.21653E-02  0.20806E-02  0.20216E-02  0.20806E-02
  0.21653E-02  0.21656E-02  0.20712E-02  0.18339E-02  0.13606E-02  0.71408E-03
  0.29745E-03  0.53255E-03  0.66225E-03  0.62297E-03  0.52417E-03  0.45422E-03
  0.45497E-03  0.49831E-03  0.53193E-03  0.53587E-03  0.50911E-03  0.45190E-03
  0.41043E-03  0.57285E-03  0.11862E-02  0.22444E-02  0.33551E-02  0.38652E-02
  0.20189E-02  0.51604E-03  0.18670E-02  0.29062E-02  0.28439E-02  0.20354E-02
  0.11189E-02  0.53681E-03  0.36033E-03  0.36717E-03  0.38720E-03  0.39390E-03
  0.40257E-03  0.44126E-03  0.54518E-03  0.71574E-03  0.91640E-03  0.10950E-02
  0.11678E-02  0.10174E-02  0.57193E-03  0.29523E-03  0.10445E-02  0.18113E-02
  0.25567E-02  0.33625E-02  0.42000E-02  0.48777E-02  0.51435E-02  0.48777E-02
  0.42000E-02  0.33625E-02  0.25567E-02  0.18113E-02  0.10445E-02  0.29523E-03
  0.57193E-03  0.10174E-02  0.11678E-02  0.10950E-02  0.91641E-03  0.71574E-03
  0.54518E-03  0.44126E-03  0.40257E-03  0.39390E-03  0.38720E-03  0.36717E-03
  0.36033E-03  0.53681E-03  0.11189E-02  0.20354E-02  0.28439E-02  0.29062E-02
  0.33265E-02  0.18670E-02  0.80550E-03  0.16176E-02  0.18763E-02  0.14430E-02
  0.81318E-03  0.39633E-03  0.29236E-03  0.30645E-03  0.33271E-03  0.38203E-03
  0.47498E-03  0.62576E-03  0.83855E-03  0.10956E-02  0.13646E-02  0.16000E-02
  0.17207E-02  0.16105E-02  0.11840E-02  0.47296E-03  0.46243E-03  0.14616E-02
  0.26480E-02  0.40905E-02  0.56581E-02  0.69395E-02  0.74413E-02  0.69395E-02
  0.56582E-02  0.40905E-02  0.26480E-02  0.14616E-02  0.46243E-03  0.47297E-03
  0.11840E-02  0.16105E-02  0.17207E-02  0.16000E-02  0.13646E-02  0.10956E-02
  0.83855E-03  0.62576E-03  0.47498E-03  0.38203E-03  0.33271E-03  0.30645E-03
  0.29236E-03  0.39633E-03  0.81318E-03  0.14430E-02  0.18763E-02  0.16176E-02
  0.38652E-02  0.29062E-02  0.16176E-02  0.98040E-03  0.98042E-03  0.77689E-03
  0.44143E-03  0.25847E-03  0.26280E-03  0.30067E-03  0.36088E-03  0.46677E-03
  0.62593E-03  0.84449E-03  0.11210E-02  0.14363E-02  0.17605E-02  0.20521E-02
  0.22379E-02  0.22102E-02  0.18811E-02  0.12471E-02  0.37586E-03  0.71594E-03
  0.20866E-02  0.37933E-02  0.56449E-02  0.71461E-02  0.77306E-02  0.71461E-02
  0.56449E-02  0.37933E-02  0.20866E-02  0.71594E-03  0.37586E-03  0.12471E-02
  0.18811E-02  0.22102E-02  0.22379E-02  0.20521E-02  0.17605E-02  0.14363E-02
  0.11210E-02  0.84449E-03  0.62593E-03  0.46677E-03  0.36088E-03  0.30067E-03
  0.26280E-03  0.25847E-03  0.44143E-03  0.77690E-03  0.98042E-03  0.98040E-03
  0.33551E-02  0.28439E-02  0.18763E-02  0.98042E-03  0.48123E-03  0.26858E-03
  0.18749E-03  0.22923E-03  0.27763E-03  0.32789E-03  0.41590E-03  0.55575E-03
  0.75167E-03  0.10108E-02  0.13294E-02  0.16870E-02  0.20552E-02  0.23979E-02
  0.26531E-02  0.27287E-02  0.25391E-02  0.20585E-02  0.13202E-02  0.35233E-03
  0.93419E-03  0.24907E-02  0.41604E-02  0.55013E-02  0.60209E-02  0.55013E-02
  0.41604E-02  0.24907E-02  0.93419E-03  0.35233E-03  0.13202E-02  0.20585E-02
  0.25391E-02  0.27287E-02  0.26531E-02  0.23979E-02  0.20552E-02  0.16870E-02
  0.13294E-02  0.10108E-02  0.75167E-03  0.55575E-03  0.41590E-03  0.32789E-03
  0.27763E-03  0.22923E-03  0.18749E-03  0.26858E-03  0.48123E-03  0.98042E-03
  0.22444E-02  0.20354E-02  0.14430E-02  0.77690E-03  0.26859E-03  0.42881E-04
  0.19382E-03  0.26244E-03  0.29880E-03  0.35422E-03  0.45741E-03  0.61372E-03
  0.82866E-03  0.11094E-02  0.14504E-02  0.18312E-02  0.22263E-02  0.26049E-02
  0.29181E-02  0.30923E-02  0.30519E-02  0.27583E-02  0.22233E-02  0.14726E-02
  0.51840E-03  0.69500E-03  0.19063E-02  0.28731E-02  0.32460E-02  0.28731E-02
  0.19063E-02  0.69500E-03  0.51840E-03  0.14726E-02  0.22233E-02  0.27583E-02
  0.30519E-02  0.30923E-02  0.29181E-02  0.26049E-02  0.22263E-02  0.18312E-02
  0.14504E-02  0.11094E-02  0.82866E-03  0.61372E-03  0.45741E-03  0.35422E-03
  0.29880E-03  0.26244E-03  0.19382E-03  0.42881E-04  0.26858E-03  0.77689E-03
  0.11862E-02  0.11189E-02  0.81318E-03  0.44143E-03  0.18749E-03  0.19382E-03
  0.25689E-03  0.28581E-03  0.31084E-03  0.36848E-03  0.47615E-03  0.63737E-03
  0.85840E-03  0.11436E-02  0.14855E-02  0.18666E-02  0.22661E-02  0.26584E-02
  0.30053E-02  0.32528E-02  0.33416E-02  0.32307E-02  0.29164E-02  0.24246E-02
  0.17870E-02  0.10467E-02  0.31452E-03  0.32192E-03  0.53342E-03  0.32192E-03
  0.31452E-03  0.10467E-02  0.17870E-02  0.24246E-02  0.29164E-02  0.32307E-02
  0.33416E-02  0.32528E-02  0.30053E-02  0.26584E-02  0.22661E-02  0.18666E-02
  0.14855E-02  0.11436E-02  0.85840E-03  0.63737E-03  0.47615E-03  0.36848E-03
  0.31084E-03  0.28581E-03  0.25689E-03  0.19382E-03  0.18749E-03  0.44143E-03
  0.57285E-03  0.53681E-03  0.39633E-03  0.25847E-03  0.22923E-03  0.26244E-03
  0.28581E-03  0.29682E-03  0.31633E-03  0.36945E-03  0.47132E-03  0.62726E-03
  0.84180E-03  0.11143E-02  0.14357E-02  0.17936E-02  0.21739E-02  0.25550E-02
  0.29061E-02  0.31903E-02  0.33682E-02  0.34052E-02  0.32865E-02  0.30276E-02
  0.26677E-02  0.22561E-02  0.18568E-02  0.15568E-02  0.14439E-02  0.15568E-02
  0.18568E-02  0.22561E-02  0.26677E-02  0.30276E-02  0.32865E-02  0.34052E-02
  0.33682E-02  0.31903E-02  0.29061E-02  0.25550E-02  0.21739E-02  0.17936E-02
  0.14357E-02  0.11143E-02  0.84180E-03  0.62726E-03  0.47132E-03  0.36945E-03
  0.31633E-03  0.29682E-03  0.28581E-03  0.26244E-03  0.22923E-03  0.25847E-03
  0.41043E-03  0.36033E-03  0.29236E-03  0.26280E-03  0.27763E-03  0.29880E-03
  0.31084E-03  0.31633E-03  0.32721E-03  0.36580E-03  0.45093E-03  0.58990E-03
  0.78399E-03  0.10272E-02  0.13092E-02  0.16230E-02  0.19618E-02  0.23076E-02
  0.26340E-02  0.29163E-02  0.31342E-02  0.32651E-02  0.32892E-02  0.32073E-02
  0.30479E-02  0.28546E-02  0.26711E-02  0.25381E-02  0.24891E-02  0.25381E-02
  0.26711E-02  0.28546E-02  0.30479E-02  0.32073E-02  0.32892E-02  0.32651E-02
  0.31342E-02  0.29163E-02  0.26340E-02  0.23076E-02  0.19618E-02  0.16230E-02
  0.13092E-02  0.10272E-02  0.78399E-03  0.58991E-03  0.45094E-03  0.36580E-03
  0.32721E-03  0.31633E-03  0.31084E-03  0.29880E-03  0.27763E-03  0.26280E-03
  0.45190E-03  0.36717E-03  0.30645E-03  0.30067E-03  0.32789E-03  0.35422E-03
  0.36848E-03  0.36945E-03  0.36580E-03  0.38071E-03  0.43741E-03  0.54590E-03
  0.70544E-03  0.90570E-03  0.11343E-02  0.13879E-02  0.16655E-02  0.19539E-02
  0.22292E-02  0.24744E-02  0.26832E-02  0.28461E-02  0.29459E-02  0.29732E-02
  0.29411E-02  0.28788E-02  0.28147E-02  0.27682E-02  0.27513E-02  0.27682E-02
  0.28147E-02  0.28788E-02  0.29411E-02  0.29732E-02  0.29459E-02  0.28461E-02
  0.26832E-02  0.24744E-02  0.22292E-02  0.19539E-02  0.16655E-02  0.13879E-02
  0.11343E-02  0.90570E-03  0.70544E-03  0.54590E-03  0.43741E-03  0.38071E-03
  0.36580E-03  0.36944E-03  0.36848E-03  0.35422E-03  0.32788E-03  0.30067E-03
  0.50911E-03  0.38720E-03  0.33271E-03  0.36088E-03  0.41590E-03  0.45741E-03
  0.47615E-03  0.47132E-03  0.45094E-03  0.43741E-03  0.45625E-03  0.52219E-03
  0.63641E-03  0.78607E-03  0.95488E-03  0.11385E-02  0.13395E-02  0.15500E-02
  0.17506E-02  0.19289E-02  0.20864E-02  0.22242E-02  0.23320E-02  0.23990E-02
  0.24283E-02  0.24345E-02  0.24317E-02  0.24274E-02  0.24255E-02  0.24274E-02
  0.24317E-02  0.24345E-02  0.24283E-02  0.23990E-02  0.23320E-02  0.22242E-02
  0.20864E-02  0.19289E-02  0.17506E-02  0.15500E-02  0.13395E-02  0.11385E-02
  0.95488E-03  0.78607E-03  0.63641E-03  0.52219E-03  0.45625E-03  0.43741E-03
  0.45093E-03  0.47132E-03  0.47615E-03  0.45741E-03  0.41590E-03  0.36088E-03
  0.53587E-03  0.39389E-03  0.38203E-03  0.46677E-03  0.55575E-03  0.61372E-03
  0.63737E-03  0.62726E-03  0.58990E-03  0.54590E-03  0.52219E-03  0.53893E-03
  0.60257E-03  0.70061E-03  0.81156E-03  0.92480E-03  0.10415E-02  0.11586E-02
  0.12644E-02  0.13523E-02  0.14281E-02  0.14985E-02  0.15608E-02  0.16091E-02
  0.16440E-02  0.16704E-02  0.16901E-02  0.17020E-02  0.17058E-02  0.17020E-02
  0.16901E-02  0.16704E-02  0.16440E-02  0.16091E-02  0.15608E-02  0.14985E-02
  0.14281E-02  0.13523E-02  0.12644E-02  0.11586E-02  0.10415E-02  0.92480E-03
  0.81156E-03  0.70061E-03  0.60257E-03  0.53894E-03  0.52219E-03  0.54590E-03
  0.58990E-03  0.62726E-03  0.63737E-03  0.61372E-03  0.55575E-03  0.46677E-03
  0.53193E-03  0.40257E-03  0.47498E-03  0.62593E-03  0.75167E-03  0.82866E-03
  0.85840E-03  0.84180E-03  0.78399E-03  0.70544E-03  0.63641E-03  0.60257E-03
  0.61569E-03  0.66605E-03  0.72847E-03  0.78334E-03  0.82432E-03  0.84919E-03
  0.85474E-03  0.84294E-03  0.82406E-03  0.80876E-03  0.80158E-03  0.80413E-03
  0.81816E-03  0.84143E-03  0.86593E-03  0.88324E-03  0.88927E-03  0.88324E-03
  0.86593E-03  0.84143E-03  0.81816E-03  0.80413E-03  0.80157E-03  0.80876E-03
  0.82406E-03  0.84294E-03  0.85474E-03  0.84919E-03  0.82432E-03  0.78334E-03
  0.72847E-03  0.66605E-03  0.61569E-03  0.60258E-03  0.63641E-03  0.70544E-03
  0.78399E-03  0.84180E-03  0.85840E-03  0.82866E-03  0.75167E-03  0.62593E-03
  0.49831E-03  0.44125E-03  0.62576E-03  0.84449E-03  0.10108E-02  0.11094E-02
  0.11436E-02  0.11143E-02  0.10272E-02  0.90570E-03  0.78607E-03  0.70061E-03
  0.66605E-03  0.67597E-03  0.70405E-03  0.72384E-03  0.72176E-03  0.69524E-03
  0.65042E-03  0.60298E-03  0.57306E-03  0.57517E-03  0.61258E-03  0.67664E-03
  0.75050E-03  0.81851E-03  0.87214E-03  0.90703E-03  0.91932E-03  0.90703E-03
  0.87214E-03  0.81851E-03  0.75050E-03  0.67664E-03  0.61258E-03  0.57517E-03
  0.57306E-03  0.60298E-03  0.65043E-03  0.69524E-03  0.72176E-03  0.72384E-03
  0.70405E-03  0.67598E-03  0.66605E-03  0.70061E-03  0.78607E-03  0.90570E-03
  0.10272E-02  0.11143E-02  0.11436E-02  0.11094E-02  0.10108E-02  0.84449E-03
  0.45497E-03  0.54518E-03  0.83855E-03  0.11210E-02  0.13294E-02  0.14504E-02
  0.14855E-02  0.14357E-02  0.13092E-02  0.11343E-02  0.95488E-03  0.81156E-03
  0.72847E-03  0.70405E-03  0.71111E-03  0.71789E-03  0.70874E-03  0.68964E-03
  0.68683E-03  0.73252E-03  0.83692E-03  0.98449E-03  0.11536E-02  0.13234E-02
  0.14742E-02  0.15932E-02  0.16772E-02  0.17278E-02  0.17449E-02  0.17278E-02
  0.16772E-02  0.15932E-02  0.14742E-02  0.13234E-02  0.11536E-02  0.98449E-03
  0.83692E-03  0.73252E-03  0.68683E-03  0.68964E-03  0.70874E-03  0.71790E-03
  0.71111E-03  0.70405E-03  0.72847E-03  0.81156E-03  0.95488E-03  0.11343E-02
  0.13092E-02  0.14357E-02  0.14855E-02  0.14504E-02  0.13294E-02  0.11210E-02
  0.45422E-03  0.71574E-03  0.10956E-02  0.14363E-02  0.16870E-02  0.18312E-02
  0.18666E-02  0.17936E-02  0.16230E-02  0.13879E-02  0.11385E-02  0.92480E-03
  0.78334E-03  0.72384E-03  0.71789E-03  0.72284E-03  0.71873E-03  0.72183E-03
  0.77671E-03  0.91844E-03  0.11372E-02  0.13979E-02  0.16683E-02  0.19230E-02
  0.21405E-02  0.23073E-02  0.24210E-02  0.24861E-02  0.25073E-02  0.24861E-02
  0.24210E-02  0.23073E-02  0.21405E-02  0.19230E-02  0.16683E-02  0.13979E-02
  0.11372E-02  0.91844E-03  0.77671E-03  0.72183E-03  0.71873E-03  0.72284E-03
  0.71790E-03  0.72384E-03  0.78334E-03  0.92480E-03  0.11385E-02  0.13879E-02
  0.16230E-02  0.17936E-02  0.18666E-02  0.18312E-02  0.16870E-02  0.14363E-02
  0.52417E-03  0.91640E-03  0.13646E-02  0.17605E-02  0.20552E-02  0.22263E-02
  0.22661E-02  0.21739E-02  0.19618E-02  0.16655E-02  0.13395E-02  0.10415E-02
  0.82432E-03  0.72176E-03  0.70874E-03  0.71873E-03  0.71543E-03  0.71935E-03
  0.79435E-03  0.98878E-03  0.12843E-02  0.16295E-02  0.19789E-02  0.23000E-02
  0.25691E-02  0.27720E-02  0.29060E-02  0.29791E-02  0.30018E-02  0.29791E-02
  0.29060E-02  0.27720E-02  0.25691E-02  0.23000E-02  0.19789E-02  0.16295E-02
  0.12843E-02  0.98878E-03  0.79435E-03  0.71935E-03  0.71544E-03  0.71873E-03
  0.70874E-03  0.72176E-03  0.82432E-03  0.10415E-02  0.13395E-02  0.16655E-02
  0.19618E-02  0.21739E-02  0.22661E-02  0.22263E-02  0.20552E-02  0.17605E-02
  0.62297E-03  0.10950E-02  0.16000E-02  0.20521E-02  0.23979E-02  0.26049E-02
  0.26584E-02  0.25550E-02  0.23076E-02  0.19539E-02  0.15500E-02  0.11586E-02
  0.84919E-03  0.69524E-03  0.68964E-03  0.72183E-03  0.71935E-03  0.69497E-03
  0.73255E-03  0.92162E-03  0.12513E-02  0.16481E-02  0.20471E-02  0.24063E-02
  0.27002E-02  0.29146E-02  0.30487E-02  0.31160E-02  0.31355E-02  0.31160E-02
  0.30487E-02  0.29146E-02  0.27002E-02  0.24063E-02  0.20471E-02  0.16481E-02
  0.12513E-02  0.92162E-03  0.73255E-03  0.69498E-03  0.71935E-03  0.72183E-03
  0.68964E-03  0.69524E-03  0.84919E-03  0.11586E-02  0.15500E-02  0.19539E-02
  0.23076E-02  0.25550E-02  0.26584E-02  0.26049E-02  0.23979E-02  0.20521E-02
  0.66225E-03  0.11678E-02  0.17207E-02  0.22379E-02  0.26531E-02  0.29181E-02
  0.30053E-02  0.29061E-02  0.26340E-02  0.22292E-02  0.17506E-02  0.12644E-02
  0.85474E-03  0.65042E-03  0.68683E-03  0.77671E-03  0.79435E-03  0.73255E-03
  0.66870E-03  0.75809E-03  0.10593E-02  0.14678E-02  0.18820E-02  0.22435E-02
  0.25222E-02  0.27062E-02  0.28020E-02  0.28363E-02  0.28426E-02  0.28363E-02
  0.28020E-02  0.27062E-02  0.25222E-02  0.22435E-02  0.18820E-02  0.14678E-02
  0.10593E-02  0.75810E-03  0.66870E-03  0.73255E-03  0.79435E-03  0.77671E-03
  0.68683E-03  0.65043E-03  0.85474E-03  0.12644E-02  0.17506E-02  0.22292E-02
  0.26340E-02  0.29061E-02  0.30053E-02  0.29181E-02  0.26531E-02  0.22379E-02
  0.53255E-03  0.10174E-02  0.16105E-02  0.22102E-02  0.27287E-02  0.30923E-02
  0.32528E-02  0.31903E-02  0.29163E-02  0.24744E-02  0.19289E-02  0.13523E-02
  0.84294E-03  0.60298E-03  0.73252E-03  0.91844E-03  0.98878E-03  0.92162E-03
  0.75809E-03  0.63422E-03  0.77418E-03  0.11332E-02  0.15244E-02  0.18470E-02
  0.20579E-02  0.21489E-02  0.21453E-02  0.21022E-02  0.20792E-02  0.21022E-02
  0.21453E-02  0.21489E-02  0.20579E-02  0.18470E-02  0.15244E-02  0.11332E-02
  0.77418E-03  0.63423E-03  0.75810E-03  0.92162E-03  0.98878E-03  0.91844E-03
  0.73252E-03  0.60298E-03  0.84294E-03  0.13523E-02  0.19289E-02  0.24744E-02
  0.29163E-02  0.31903E-02  0.32528E-02  0.30923E-02  0.27287E-02  0.22102E-02
  0.29745E-03  0.57194E-03  0.11840E-02  0.18811E-02  0.25391E-02  0.30519E-02
  0.33416E-02  0.33682E-02  0.31342E-02  0.26832E-02  0.20864E-02  0.14281E-02
  0.82406E-03  0.57306E-03  0.83692E-03  0.11372E-02  0.12843E-02  0.12513E-02
  0.10593E-02  0.77418E-03  0.58431E-03  0.73818E-03  0.10495E-02  0.12889E-02
  0.13728E-02  0.12986E-02  0.11305E-02  0.97451E-03  0.91437E-03  0.97451E-03
  0.11305E-02  0.12986E-02  0.13728E-02  0.12889E-02  0.10495E-02  0.73818E-03
  0.58432E-03  0.77418E-03  0.10593E-02  0.12513E-02  0.12843E-02  0.11372E-02
  0.83692E-03  0.57306E-03  0.82406E-03  0.14281E-02  0.20864E-02  0.26832E-02
  0.31342E-02  0.33682E-02  0.33416E-02  0.30519E-02  0.25391E-02  0.18811E-02
  0.71408E-03  0.29523E-03  0.47297E-03  0.12471E-02  0.20586E-02  0.27583E-02
  0.32307E-02  0.34052E-02  0.32651E-02  0.28461E-02  0.22242E-02  0.14985E-02
  0.80876E-03  0.57517E-03  0.98449E-03  0.13979E-02  0.16295E-02  0.16481E-02
  0.14678E-02  0.11332E-02  0.73818E-03  0.49812E-03  0.59249E-03  0.70517E-03
  0.63028E-03  0.44426E-03  0.55767E-03  0.87894E-03  0.10237E-02  0.87894E-03
  0.55767E-03  0.44426E-03  0.63028E-03  0.70517E-03  0.59249E-03  0.49812E-03
  0.73818E-03  0.11332E-02  0.14678E-02  0.16481E-02  0.16295E-02  0.13979E-02
  0.98449E-03  0.57517E-03  0.80876E-03  0.14985E-02  0.22242E-02  0.28461E-02
  0.32651E-02  0.34052E-02  0.32307E-02  0.27583E-02  0.20585E-02  0.12471E-02
  0.13606E-02  0.10445E-02  0.46243E-03  0.37586E-03  0.13202E-02  0.22233E-02
  0.29164E-02  0.32865E-02  0.32892E-02  0.29459E-02  0.23320E-02  0.15608E-02
  0.80157E-03  0.61258E-03  0.11536E-02  0.16683E-02  0.19790E-02  0.20471E-02
  0.18820E-02  0.15244E-02  0.10495E-02  0.59249E-03  0.36750E-03  0.32915E-03
  0.33962E-03  0.86130E-03  0.16354E-02  0.22922E-02  0.25486E-02  0.22922E-02
  0.16354E-02  0.86130E-03  0.33962E-03  0.32915E-03  0.36750E-03  0.59249E-03
  0.10495E-02  0.15244E-02  0.18820E-02  0.20471E-02  0.19789E-02  0.16683E-02
  0.11536E-02  0.61258E-03  0.80157E-03  0.15608E-02  0.23320E-02  0.29459E-02
  0.32892E-02  0.32865E-02  0.29164E-02  0.22233E-02  0.13202E-02  0.37586E-03
  0.18339E-02  0.18113E-02  0.14616E-02  0.71594E-03  0.35233E-03  0.14726E-02
  0.24246E-02  0.30276E-02  0.32073E-02  0.29732E-02  0.23990E-02  0.16091E-02
  0.80413E-03  0.67664E-03  0.13234E-02  0.19230E-02  0.23000E-02  0.24063E-02
  0.22435E-02  0.18470E-02  0.12889E-02  0.70517E-03  0.32915E-03  0.23353E-03
  0.47595E-03  0.13438E-02  0.24458E-02  0.33569E-02  0.37095E-02  0.33569E-02
  0.24458E-02  0.13438E-02  0.47595E-03  0.23353E-03  0.32915E-03  0.70517E-03
  0.12889E-02  0.18470E-02  0.22435E-02  0.24063E-02  0.23000E-02  0.19230E-02
  0.13234E-02  0.67664E-03  0.80413E-03  0.16091E-02  0.23990E-02  0.29732E-02
  0.32073E-02  0.30276E-02  0.24246E-02  0.14726E-02  0.35233E-03  0.71594E-03
  0.20712E-02  0.25567E-02  0.26480E-02  0.20866E-02  0.93419E-03  0.51840E-03
  0.17870E-02  0.26677E-02  0.30479E-02  0.29411E-02  0.24283E-02  0.16440E-02
  0.81816E-03  0.75050E-03  0.14742E-02  0.21405E-02  0.25691E-02  0.27002E-02
  0.25222E-02  0.20579E-02  0.13728E-02  0.63028E-03  0.33962E-03  0.47595E-03
  0.49029E-03  0.13421E-02  0.26281E-02  0.37101E-02  0.41295E-02  0.37101E-02
  0.26281E-02  0.13421E-02  0.49029E-03  0.47595E-03  0.33962E-03  0.63028E-03
  0.13728E-02  0.20579E-02  0.25222E-02  0.27002E-02  0.25691E-02  0.21405E-02
  0.14742E-02  0.75050E-03  0.81816E-03  0.16440E-02  0.24283E-02  0.29411E-02
  0.30479E-02  0.26677E-02  0.17870E-02  0.51840E-03  0.93419E-03  0.20866E-02
  0.21656E-02  0.33625E-02  0.40905E-02  0.37933E-02  0.24907E-02  0.69500E-03
  0.10467E-02  0.22561E-02  0.28546E-02  0.28788E-02  0.24345E-02  0.16704E-02
  0.84143E-03  0.81851E-03  0.15932E-02  0.23073E-02  0.27720E-02  0.29146E-02
  0.27062E-02  0.21489E-02  0.12986E-02  0.44426E-03  0.86130E-03  0.13438E-02
  0.13421E-02  0.14795E-02  0.24001E-02  0.33871E-02  0.37873E-02  0.33871E-02
  0.24001E-02  0.14795E-02  0.13421E-02  0.13438E-02  0.86130E-03  0.44426E-03
  0.12986E-02  0.21489E-02  0.27062E-02  0.29146E-02  0.27720E-02  0.23073E-02
  0.15932E-02  0.81851E-03  0.84143E-03  0.16704E-02  0.24345E-02  0.28788E-02
  0.28546E-02  0.22561E-02  0.10467E-02  0.69500E-03  0.24907E-02  0.37933E-02
  0.21653E-02  0.42000E-02  0.56582E-02  0.56449E-02  0.41604E-02  0.19063E-02
  0.31452E-03  0.18568E-02  0.26711E-02  0.28147E-02  0.24317E-02  0.16901E-02
  0.86593E-03  0.87214E-03  0.16772E-02  0.24210E-02  0.29060E-02  0.30487E-02
  0.28020E-02  0.21453E-02  0.11305E-02  0.55767E-03  0.16354E-02  0.24458E-02
  0.26281E-02  0.24001E-02  0.23684E-02  0.26838E-02  0.28700E-02  0.26838E-02
  0.23684E-02  0.24001E-02  0.26281E-02  0.24458E-02  0.16354E-02  0.55767E-03
  0.11305E-02  0.21453E-02  0.28020E-02  0.30487E-02  0.29060E-02  0.24210E-02
  0.16772E-02  0.87214E-03  0.86593E-03  0.16901E-02  0.24317E-02  0.28147E-02
  0.26711E-02  0.18568E-02  0.31452E-03  0.19063E-02  0.41604E-02  0.56449E-02
  0.20806E-02  0.48777E-02  0.69395E-02  0.71461E-02  0.55013E-02  0.28731E-02
  0.32192E-03  0.15568E-02  0.25381E-02  0.27682E-02  0.24274E-02  0.17020E-02
  0.88323E-03  0.90703E-03  0.17278E-02  0.24861E-02  0.29791E-02  0.31160E-02
  0.28363E-02  0.21022E-02  0.97451E-03  0.87894E-03  0.22922E-02  0.33569E-02
  0.37101E-02  0.33871E-02  0.26838E-02  0.19312E-02  0.15542E-02  0.19313E-02
  0.26838E-02  0.33871E-02  0.37101E-02  0.33569E-02  0.22922E-02  0.87894E-03
  0.97451E-03  0.21022E-02  0.28363E-02  0.31160E-02  0.29791E-02  0.24861E-02
  0.17278E-02  0.90703E-03  0.88324E-03  0.17020E-02  0.24274E-02  0.27682E-02
  0.25381E-02  0.15568E-02  0.32192E-03  0.28731E-02  0.55013E-02  0.71461E-02
  0.20216E-02  0.51435E-02  0.74413E-02  0.77306E-02  0.60209E-02  0.32460E-02
  0.53342E-03  0.14439E-02  0.24891E-02  0.27513E-02  0.24255E-02  0.17058E-02
  0.88926E-03  0.91932E-03  0.17449E-02  0.25073E-02  0.30018E-02  0.31355E-02
  0.28426E-02  0.20792E-02  0.91437E-03  0.10237E-02  0.25486E-02  0.37095E-02
  0.41295E-02  0.37873E-02  0.28700E-02  0.15542E-02  0.12160E-08  0.15542E-02
  0.28700E-02  0.37873E-02  0.41295E-02  0.37095E-02  0.25486E-02  0.10237E-02
  0.91437E-03  0.20792E-02  0.28426E-02  0.31355E-02  0.30018E-02  0.25073E-02
  0.17449E-02  0.91932E-03  0.88927E-03  0.17058E-02  0.24255E-02  0.27513E-02
  0.24891E-02  0.14439E-02  0.53342E-03  0.32460E-02  0.60209E-02  0.77306E-02
  0.20806E-02  0.48777E-02  0.69395E-02  0.71461E-02  0.55013E-02  0.28731E-02
  0.32192E-03  0.15568E-02  0.25381E-02  0.27682E-02  0.24274E-02  0.17020E-02
  0.88323E-03  0.90703E-03  0.17278E-02  0.24861E-02  0.29791E-02  0.31160E-02
  0.28363E-02  0.21022E-02  0.97451E-03  0.87894E-03  0.22922E-02  0.33569E-02
  0.37101E-02  0.33871E-02  0.26838E-02  0.19313E-02  0.15542E-02  0.19312E-02
  0.26838E-02  0.33871E-02  0.37101E-02  0.33569E-02  0.22922E-02  0.87894E-03
  0.97451E-03  0.21022E-02  0.28363E-02  0.31160E-02  0.29791E-02  0.24861E-02
  0.17278E-02  0.90703E-03  0.88324E-03  0.17020E-02  0.24274E-02  0.27682E-02
  0.25381E-02  0.15568E-02  0.32192E-03  0.28731E-02  0.55013E-02  0.71461E-02
  0.21653E-02  0.42000E-02  0.56581E-02  0.56449E-02  0.41604E-02  0.19063E-02
  0.31452E-03  0.18568E-02  0.26711E-02  0.28147E-02  0.24317E-02  0.16901E-02
  0.86593E-03  0.87214E-03  0.16772E-02  0.24210E-02  0.29060E-02  0.30487E-02
  0.28020E-02  0.21453E-02  0.11305E-02  0.55767E-03  0.16354E-02  0.24458E-02
  0.26281E-02  0.24001E-02  0.23684E-02  0.26838E-02  0.28700E-02  0.26838E-02
  0.23684E-02  0.24001E-02  0.26281E-02  0.24458E-02  0.16354E-02  0.55767E-03
  0.11305E-02  0.21453E-02  0.28020E-02  0.30487E-02  0.29060E-02  0.24210E-02
  0.16772E-02  0.87214E-03  0.86593E-03  0.16901E-02  0.24317E-02  0.28147E-02
  0.26711E-02  0.18568E-02  0.31452E-03  0.19063E-02  0.41604E-02  0.56449E-02
  0.21656E-02  0.33625E-02  0.40905E-02  0.37933E-02  0.24907E-02  0.69500E-03
  0.10467E-02  0.22561E-02  0.28546E-02  0.28788E-02  0.24345E-02  0.16704E-02
  0.84143E-03  0.81851E-03  0.15932E-02  0.23073E-02  0.27720E-02  0.29146E-02
  0.27062E-02  0.21489E-02  0.12986E-02  0.44426E-03  0.86130E-03  0.13438E-02
  0.13421E-02  0.14795E-02  0.24001E-02  0.33871E-02  0.37873E-02  0.33871E-02
  0.24001E-02  0.14795E-02  0.13421E-02  0.13438E-02  0.86130E-03  0.44426E-03
  0.12986E-02  0.21489E-02  0.27062E-02  0.29146E-02  0.27720E-02  0.23073E-02
  0.15932E-02  0.81851E-03  0.84143E-03  0.16704E-02  0.24345E-02  0.28788E-02
  0.28546E-02  0.22561E-02  0.10467E-02  0.69500E-03  0.24907E-02  0.37933E-02
  0.20712E-02  0.25567E-02  0.26480E-02  0.20866E-02  0.93419E-03  0.51840E-03
  0.17870E-02  0.26677E-02  0.30479E-02  0.29411E-02  0.24283E-02  0.16440E-02
  0.81816E-03  0.75050E-03  0.14742E-02  0.21405E-02  0.25691E-02  0.27002E-02
  0.25222E-02  0.20579E-02  0.13728E-02  0.63028E-03  0.33962E-03  0.47595E-03
  0.49029E-03  0.13421E-02  0.26281E-02  0.37101E-02  0.41295E-02  0.37101E-02
  0.26281E-02  0.13421E-02  0.49029E-03  0.47595E-03  0.33962E-03  0.63028E-03
  0.13728E-02  0.20579E-02  0.25222E-02  0.27002E-02  0.25691E-02  0.21405E-02
  0.14742E-02  0.75050E-03  0.81816E-03  0.16440E-02  0.24283E-02  0.29411E-02
  0.30479E-02  0.26677E-02  0.17870E-02  0.51840E-03  0.93419E-03  0.20866E-02
  0.18339E-02  0.18113E-02  0.14616E-02  0.71594E-03  0.35233E-03  0.14726E-02
  0.24246E-02  0.30276E-02  0.32073E-02  0.29732E-02  0.23990E-02  0.16091E-02
  0.80413E-03  0.67664E-03  0.13234E-02  0.19230E-02  0.23000E-02  0.24063E-02
  0.22435E-02  0.18470E-02  0.12889E-02  0.70517E-03  0.32915E-03  0.23353E-03
  0.47595E-03  0.13438E-02  0.24458E-02  0.33569E-02  0.37095E-02  0.33569E-02
  0.24458E-02  0.13438E-02  0.47595E-03  0.23353E-03  0.32915E-03  0.70517E-03
  0.12889E-02  0.18470E-02  0.22435E-02  0.24063E-02  0.23000E-02  0.19230E-02
  0.13234E-02  0.67664E-03  0.80413E-03  0.16091E-02  0.23990E-02  0.29732E-02
  0.32073E-02  0.30276E-02  0.24246E-02  0.14726E-02  0.35233E-03  0.71594E-03
  0.13606E-02  0.10445E-02  0.46243E-03  0.37586E-03  0.13202E-02  0.22233E-02
  0.29164E-02  0.32865E-02  0.32892E-02  0.29459E-02  0.23320E-02  0.15608E-02
  0.80158E-03  0.61258E-03  0.11536E-02  0.16683E-02  0.19789E-02  0.20471E-02
  0.18820E-02  0.15244E-02  0.10496E-02  0.59250E-03  0.36750E-03  0.32915E-03
  0.33962E-03  0.86130E-03  0.16354E-02  0.22922E-02  0.25486E-02  0.22922E-02
  0.16354E-02  0.86130E-03  0.33962E-03  0.32915E-03  0.36750E-03  0.59249E-03
  0.10495E-02  0.15244E-02  0.18820E-02  0.20471E-02  0.19790E-02  0.16683E-02
  0.11536E-02  0.61258E-03  0.80158E-03  0.15608E-02  0.23320E-02  0.29459E-02
  0.32892E-02  0.32865E-02  0.29164E-02  0.22233E-02  0.13202E-02  0.37586E-03
  0.71408E-03  0.29523E-03  0.47297E-03  0.12471E-02  0.20586E-02  0.27583E-02
  0.32307E-02  0.34052E-02  0.32651E-02  0.28461E-02  0.22242E-02  0.14985E-02
  0.80876E-03  0.57517E-03  0.98449E-03  0.13979E-02  0.16295E-02  0.16481E-02
  0.14678E-02  0.11332E-02  0.73819E-03  0.49812E-03  0.59250E-03  0.70517E-03
  0.63028E-03  0.44426E-03  0.55767E-03  0.87894E-03  0.10237E-02  0.87894E-03
  0.55767E-03  0.44426E-03  0.63028E-03  0.70517E-03  0.59250E-03  0.49812E-03
  0.73818E-03  0.11332E-02  0.14678E-02  0.16481E-02  0.16295E-02  0.13979E-02
  0.98449E-03  0.57517E-03  0.80876E-03  0.14985E-02  0.22242E-02  0.28461E-02
  0.32651E-02  0.34052E-02  0.32307E-02  0.27583E-02  0.20586E-02  0.12471E-02
  0.29745E-03  0.57193E-03  0.11840E-02  0.18811E-02  0.25391E-02  0.30519E-02
  0.33416E-02  0.33682E-02  0.31342E-02  0.26832E-02  0.20864E-02  0.14281E-02
  0.82406E-03  0.57306E-03  0.83692E-03  0.11372E-02  0.12843E-02  0.12513E-02
  0.10593E-02  0.77418E-03  0.58432E-03  0.73819E-03  0.10495E-02  0.12889E-02
  0.13728E-02  0.12986E-02  0.11305E-02  0.97451E-03  0.91437E-03  0.97451E-03
  0.11305E-02  0.12986E-02  0.13728E-02  0.12889E-02  0.10495E-02  0.73818E-03
  0.58432E-03  0.77418E-03  0.10593E-02  0.12513E-02  0.12843E-02  0.11372E-02
  0.83692E-03  0.57306E-03  0.82406E-03  0.14281E-02  0.20864E-02  0.26832E-02
  0.31342E-02  0.33682E-02  0.33416E-02  0.30519E-02  0.25391E-02  0.18811E-02
  0.53255E-03  0.10174E-02  0.16105E-02  0.22102E-02  0.27287E-02  0.30923E-02
  0.32528E-02  0.31903E-02  0.29163E-02  0.24744E-02  0.19289E-02  0.13523E-02
  0.84294E-03  0.60298E-03  0.73252E-03  0.91844E-03  0.98878E-03  0.92162E-03
  0.75810E-03  0.63423E-03  0.77418E-03  0.11332E-02  0.15244E-02  0.18470E-02
  0.20579E-02  0.21489E-02  0.21453E-02  0.21022E-02  0.20792E-02  0.21022E-02
  0.21453E-02  0.21489E-02  0.20579E-02  0.18470E-02  0.15244E-02  0.11332E-02
  0.77418E-03  0.63423E-03  0.75810E-03  0.92162E-03  0.98878E-03  0.91844E-03
  0.73252E-03  0.60298E-03  0.84294E-03  0.13523E-02  0.19289E-02  0.24744E-02
  0.29163E-02  0.31903E-02  0.32528E-02  0.30923E-02  0.27287E-02  0.22102E-02
  0.66225E-03  0.11678E-02  0.17207E-02  0.22379E-02  0.26531E-02  0.29181E-02
  0.30053E-02  0.29061E-02  0.26340E-02  0.22292E-02  0.17506E-02  0.12644E-02
  0.85474E-03  0.65043E-03  0.68683E-03  0.77671E-03  0.79435E-03  0.73255E-03
  0.66870E-03  0.75810E-03  0.10593E-02  0.14678E-02  0.18820E-02  0.22435E-02
  0.25222E-02  0.27062E-02  0.28020E-02  0.28363E-02  0.28426E-02  0.28363E-02
  0.28020E-02  0.27062E-02  0.25222E-02  0.22435E-02  0.18820E-02  0.14678E-02
  0.10593E-02  0.75810E-03  0.66870E-03  0.73255E-03  0.79435E-03  0.77671E-03
  0.68683E-03  0.65043E-03  0.85474E-03  0.12644E-02  0.17506E-02  0.22292E-02
  0.26340E-02  0.29061E-02  0.30053E-02  0.29181E-02  0.26531E-02  0.22379E-02
  0.62297E-03  0.10950E-02  0.16000E-02  0.20521E-02  0.23979E-02  0.26049E-02
  0.26584E-02  0.25550E-02  0.23076E-02  0.19539E-02  0.15500E-02  0.11586E-02
  0.84919E-03  0.69524E-03  0.68964E-03  0.72183E-03  0.71935E-03  0.69498E-03
  0.73255E-03  0.92162E-03  0.12513E-02  0.16481E-02  0.20471E-02  0.24063E-02
  0.27002E-02  0.29146E-02  0.30487E-02  0.31160E-02  0.31355E-02  0.31160E-02
  0.30487E-02  0.29146E-02  0.27002E-02  0.24063E-02  0.20471E-02  0.16481E-02
  0.12513E-02  0.92162E-03  0.73255E-03  0.69498E-03  0.71935E-03  0.72183E-03
  0.68964E-03  0.69524E-03  0.84919E-03  0.11586E-02  0.15500E-02  0.19539E-02
  0.23076E-02  0.25550E-02  0.26584E-02  0.26049E-02  0.23979E-02  0.20521E-02
  0.52417E-03  0.91640E-03  0.13646E-02  0.17605E-02  0.20552E-02  0.22263E-02
  0.22661E-02  0.21739E-02  0.19618E-02  0.16655E-02  0.13395E-02  0.10415E-02
  0.82432E-03  0.72176E-03  0.70874E-03  0.71873E-03  0.71543E-03  0.71935E-03
  0.79435E-03  0.98878E-03  0.12843E-02  0.16295E-02  0.19789E-02  0.23000E-02
  0.25691E-02  0.27720E-02  0.29060E-02  0.29791E-02  0.30018E-02  0.29791E-02
  0.29060E-02  0.27720E-02  0.25691E-02  0.23000E-02  0.19790E-02  0.16295E-02
  0.12843E-02  0.98878E-03  0.79435E-03  0.71935E-03  0.71543E-03  0.71873E-03
  0.70874E-03  0.72176E-03  0.82432E-03  0.10415E-02  0.13395E-02  0.16655E-02
  0.19618E-02  0.21739E-02  0.22661E-02  0.22263E-02  0.20552E-02  0.17605E-02
  0.45422E-03  0.71574E-03  0.10956E-02  0.14363E-02  0.16870E-02  0.18312E-02