       #
       # Generated by the Wannier90 code http://www.wannier.org
       # On 10May2024 at 21:04:43 
       #
CRYSTAL
PRIMVEC
   2.7281430   0.0000000   0.0000000
   0.0000000   2.7281430   0.0000000
   0.0000000   0.0000000   3.7789840
CONVVEC
   2.7281430   0.0000000   0.0000000
   0.0000000   2.7281430   0.0000000
   0.0000000   0.0000000   3.7789840
PRIMCOORD
     2  1
Fe      0.0000000   0.0000000   0.0000000
Pt      1.3640715   1.3640715   1.8894920


BEGIN_BLOCK_DATAGRID_3D
3D_field
BEGIN_DATAGRID_3D_UNKNOWN
    54    54    80
   -2.829185   -2.829185   -3.873459
   5.3552437   0.0000000   0.0000000
   0.0000000   5.3552437   0.0000000
   0.0000000   0.0000000   7.4634934
  0.73123E-03  0.11418E-02  0.13435E-02  0.12217E-02  0.83043E-03  0.34584E-03
  0.15518E-03  0.39691E-03  0.52227E-03  0.55134E-03  0.52555E-03  0.47293E-03
  0.41310E-03  0.36101E-03  0.32685E-03  0.31696E-03  0.33437E-03  0.37643E-03
  0.43421E-03  0.49694E-03  0.54814E-03  0.54087E-03  0.37983E-03  0.65763E-04
  0.70708E-03  0.14091E-02  0.18035E-02  0.16195E-02  0.88162E-03  0.92823E-04
  0.80269E-03  0.10350E-02  0.80910E-03  0.36622E-03  0.11141E-03  0.36911E-03
  0.51352E-03  0.55852E-03  0.52758E-03  0.43044E-03  0.28097E-03  0.10434E-03
  0.10434E-03  0.28097E-03  0.43044E-03  0.52758E-03  0.55852E-03  0.51352E-03
  0.36911E-03  0.11141E-03  0.36622E-03  0.80910E-03  0.10350E-02  0.80269E-03
  0.11418E-02  0.15516E-02  0.16975E-02  0.14847E-02  0.99567E-03  0.42922E-03
  0.10412E-03  0.35458E-03  0.48168E-03  0.51043E-03  0.48823E-03  0.44257E-03
  0.39062E-03  0.34583E-03  0.31799E-03  0.31384E-03  0.33722E-03  0.38586E-03
  0.45072E-03  0.52207E-03  0.58542E-03  0.59099E-03  0.42794E-03  0.69666E-04
  0.81558E-03  0.16904E-02  0.22748E-02  0.22297E-02  0.15251E-02  0.50176E-03
  0.43924E-03  0.83974E-03  0.76192E-03  0.41558E-03  0.77570E-04  0.23581E-03
  0.37436E-03  0.42831E-03  0.41747E-03  0.34869E-03  0.23345E-03  0.99223E-04
  0.99223E-04  0.23345E-03  0.34869E-03  0.41747E-03  0.42831E-03  0.37436E-03
  0.23581E-03  0.77570E-04  0.41558E-03  0.76192E-03  0.83974E-03  0.43924E-03
  0.13435E-02  0.16975E-02  0.17646E-02  0.14856E-02  0.96504E-03  0.40183E-03
  0.73173E-04  0.30665E-03  0.41050E-03  0.42848E-03  0.40626E-03  0.36636E-03
  0.32215E-03  0.28548E-03  0.26569E-03  0.26939E-03  0.30087E-03  0.35840E-03
  0.43301E-03  0.51571E-03  0.59532E-03  0.62689E-03  0.49925E-03  0.89645E-04
  0.71350E-03  0.16497E-02  0.23654E-02  0.24935E-02  0.19474E-02  0.10078E-02
  0.27509E-03  0.53306E-03  0.58822E-03  0.37983E-03  0.11554E-03  0.10660E-03
  0.22578E-03  0.28599E-03  0.29652E-03  0.25911E-03  0.18358E-03  0.99929E-04
  0.99929E-04  0.18358E-03  0.25911E-03  0.29652E-03  0.28599E-03  0.22578E-03
  0.10660E-03  0.11554E-03  0.37983E-03  0.58822E-03  0.53306E-03  0.27509E-03
  0.12217E-02  0.14847E-02  0.14856E-02  0.12010E-02  0.73899E-03  0.27218E-03
  0.76314E-04  0.25277E-03  0.31364E-03  0.31369E-03  0.28831E-03  0.25196E-03
  0.21442E-03  0.18652E-03  0.17648E-03  0.18956E-03  0.22999E-03  0.29721E-03
  0.38276E-03  0.47757E-03  0.57366E-03  0.63743E-03  0.57425E-03  0.25221E-03
  0.41302E-03  0.12626E-02  0.19902E-02  0.22523E-02  0.19233E-02  0.11925E-02
  0.46181E-03  0.30482E-03  0.40758E-03  0.32746E-03  0.17470E-03  0.58869E-04
  0.90314E-04  0.14956E-03  0.18020E-03  0.17519E-03  0.14302E-03  0.10946E-03
  0.10946E-03  0.14302E-03  0.17519E-03  0.18020E-03  0.14956E-03  0.90315E-04
  0.58869E-04  0.17470E-03  0.32746E-03  0.40758E-03  0.30483E-03  0.46180E-03
  0.83043E-03  0.99567E-03  0.96504E-03  0.73899E-03  0.40931E-03  0.10194E-03
  0.10019E-03  0.18601E-03  0.19780E-03  0.17840E-03  0.14841E-03  0.11487E-03
  0.86548E-04  0.72686E-04  0.74105E-04  0.92416E-04  0.13701E-03  0.21155E-03
  0.30772E-03  0.41440E-03  0.52434E-03  0.61680E-03  0.62478E-03  0.43981E-03
  0.52010E-04  0.66633E-03  0.12815E-02  0.15908E-02  0.14598E-02  0.98758E-03
  0.44132E-03  0.20519E-03  0.31809E-03  0.33284E-03  0.27450E-03  0.20140E-03
  0.14049E-03  0.11251E-03  0.11955E-03  0.13015E-03  0.13097E-03  0.12817E-03
  0.12817E-03  0.13097E-03  0.13015E-03  0.11955E-03  0.11251E-03  0.14049E-03
  0.20140E-03  0.27450E-03  0.33284E-03  0.31809E-03  0.20519E-03  0.44132E-03
  0.34584E-03  0.42922E-03  0.40183E-03  0.27218E-03  0.10194E-03  0.35800E-04
  0.10069E-03  0.10208E-03  0.74935E-04  0.51609E-04  0.54385E-04  0.80313E-04
  0.10796E-03  0.12168E-03  0.11545E-03  0.92152E-04  0.74299E-04  0.12103E-03
  0.21971E-03  0.33601E-03  0.45606E-03  0.56733E-03  0.63117E-03  0.57426E-03
  0.33356E-03  0.78859E-04  0.50301E-03  0.77248E-03  0.76772E-03  0.52210E-03
  0.20332E-03  0.21109E-03  0.36855E-03  0.42905E-03  0.41778E-03  0.36725E-03
  0.29833E-03  0.23071E-03  0.18390E-03  0.16264E-03  0.15580E-03  0.15383E-03
  0.15383E-03  0.15580E-03  0.16264E-03  0.18391E-03  0.23071E-03  0.29833E-03
  0.36725E-03  0.41778E-03  0.42905E-03  0.36855E-03  0.21109E-03  0.20332E-03
  0.15518E-03  0.10412E-03  0.73173E-04  0.76314E-04  0.10019E-03  0.10069E-03
  0.64480E-04  0.24931E-04  0.74617E-04  0.13208E-03  0.18343E-03  0.22805E-03
  0.25883E-03  0.26703E-03  0.25008E-03  0.21027E-03  0.15058E-03  0.94107E-04
  0.13640E-03  0.25112E-03  0.37703E-03  0.49777E-03  0.59393E-03  0.62504E-03
  0.54672E-03  0.35559E-03  0.11824E-03  0.70776E-04  0.11421E-03  0.81486E-04
  0.22462E-03  0.40435E-03  0.53070E-03  0.58647E-03  0.58149E-03  0.53182E-03
  0.45425E-03  0.36812E-03  0.29218E-03  0.23661E-03  0.20124E-03  0.18344E-03
  0.18344E-03  0.20124E-03  0.23661E-03  0.29218E-03  0.36812E-03  0.45425E-03
  0.53182E-03  0.58149E-03  0.58647E-03  0.53070E-03  0.40435E-03  0.22462E-03
  0.39691E-03  0.35458E-03  0.30665E-03  0.25277E-03  0.18601E-03  0.10208E-03
  0.24931E-04  0.10373E-03  0.19248E-03  0.26763E-03  0.32990E-03  0.37839E-03
  0.40682E-03  0.40884E-03  0.38387E-03  0.33493E-03  0.26321E-03  0.17231E-03
  0.10431E-03  0.16865E-03  0.29210E-03  0.41705E-03  0.52804E-03  0.60554E-03
  0.62475E-03  0.57632E-03  0.48529E-03  0.40425E-03  0.38197E-03  0.43274E-03
  0.53248E-03  0.63941E-03  0.71768E-03  0.74915E-03  0.73194E-03  0.67388E-03
  0.58810E-03  0.49043E-03  0.39573E-03  0.31400E-03  0.25105E-03  0.21448E-03
  0.21448E-03  0.25105E-03  0.31400E-03  0.39573E-03  0.49043E-03  0.58810E-03
  0.67388E-03  0.73194E-03  0.74915E-03  0.71768E-03  0.63941E-03  0.53248E-03
  0.52227E-03  0.48168E-03  0.41050E-03  0.31364E-03  0.19780E-03  0.74935E-04
  0.74617E-04  0.19248E-03  0.30015E-03  0.39013E-03  0.46108E-03  0.51126E-03
  0.53664E-03  0.53383E-03  0.50332E-03  0.44814E-03  0.36985E-03  0.26963E-03
  0.15978E-03  0.11296E-03  0.20469E-03  0.32893E-03  0.44653E-03  0.54414E-03
  0.60991E-03  0.63822E-03  0.63787E-03  0.63127E-03  0.64257E-03  0.68357E-03
  0.74755E-03  0.81410E-03  0.86030E-03  0.87072E-03  0.84131E-03  0.77723E-03
  0.68837E-03  0.58581E-03  0.48003E-03  0.38034E-03  0.29676E-03  0.24511E-03
  0.24511E-03  0.29676E-03  0.38034E-03  0.48003E-03  0.58581E-03  0.68837E-03
  0.77723E-03  0.84131E-03  0.87072E-03  0.86030E-03  0.81410E-03  0.74755E-03
  0.55134E-03  0.51043E-03  0.42848E-03  0.31369E-03  0.17840E-03  0.51608E-04
  0.13208E-03  0.26763E-03  0.39013E-03  0.49148E-03  0.56807E-03  0.61844E-03
  0.64142E-03  0.63604E-03  0.60286E-03  0.54428E-03  0.46283E-03  0.36085E-03
  0.24396E-03  0.13426E-03  0.12703E-03  0.23278E-03  0.35090E-03  0.45610E-03
  0.54085E-03  0.60404E-03  0.65062E-03  0.69009E-03  0.73259E-03  0.78376E-03
  0.84093E-03  0.89303E-03  0.92548E-03  0.92732E-03  0.89554E-03  0.83391E-03
  0.74911E-03  0.64814E-03  0.53852E-03  0.42957E-03  0.33441E-03  0.27413E-03
  0.27413E-03  0.33441E-03  0.42957E-03  0.53852E-03  0.64814E-03  0.74911E-03
  0.83391E-03  0.89554E-03  0.92732E-03  0.92548E-03  0.89303E-03  0.84093E-03
  0.52555E-03  0.48823E-03  0.40626E-03  0.28831E-03  0.14841E-03  0.54384E-04
  0.18343E-03  0.32989E-03  0.46108E-03  0.56807E-03  0.64663E-03  0.69632E-03
  0.71813E-03  0.71242E-03  0.67943E-03  0.62086E-03  0.54013E-03  0.44127E-03
  0.32858E-03  0.20967E-03  0.11241E-03  0.13430E-03  0.23652E-03  0.34004E-03
  0.43061E-03  0.50792E-03  0.57581E-03  0.63893E-03  0.70094E-03  0.76337E-03
  0.82389E-03  0.87542E-03  0.90828E-03  0.91470E-03  0.89200E-03  0.84195E-03
  0.76816E-03  0.67510E-03  0.56910E-03  0.45995E-03  0.36260E-03  0.30049E-03
  0.30049E-03  0.36260E-03  0.45995E-03  0.56910E-03  0.67510E-03  0.76816E-03
  0.84195E-03  0.89200E-03  0.91470E-03  0.90828E-03  0.87542E-03  0.82389E-03
  0.47293E-03  0.44257E-03  0.36636E-03  0.25196E-03  0.11487E-03  0.80312E-04
  0.22805E-03  0.37839E-03  0.51126E-03  0.61844E-03  0.69632E-03  0.74515E-03
  0.76670E-03  0.76204E-03  0.73161E-03  0.67702E-03  0.60193E-03  0.51102E-03
  0.40854E-03  0.29864E-03  0.18843E-03  0.10131E-03  0.11323E-03  0.19423E-03
  0.27916E-03  0.35835E-03  0.43288E-03  0.50511E-03  0.57658E-03  0.64735E-03
  0.71507E-03  0.77430E-03  0.81766E-03  0.83866E-03  0.83378E-03  0.80241E-03
  0.74586E-03  0.66729E-03  0.57276E-03  0.47228E-03  0.38123E-03  0.32309E-03
  0.32309E-03  0.38123E-03  0.47228E-03  0.57276E-03  0.66729E-03  0.74586E-03
  0.80241E-03  0.83378E-03  0.83866E-03  0.81766E-03  0.77430E-03  0.71507E-03
  0.41310E-03  0.39062E-03  0.32215E-03  0.21442E-03  0.86548E-04  0.10796E-03
  0.25883E-03  0.40682E-03  0.53664E-03  0.64142E-03  0.71813E-03  0.76670E-03
  0.78870E-03  0.78595E-03  0.76018E-03  0.71368E-03  0.64977E-03  0.57237E-03
  0.48544E-03  0.39286E-03  0.29874E-03  0.20787E-03  0.12777E-03  0.81135E-04
  0.10515E-03  0.16485E-03  0.23187E-03  0.30232E-03  0.37658E-03  0.45420E-03
  0.53227E-03  0.60521E-03  0.66600E-03  0.70805E-03  0.72658E-03  0.71913E-03
  0.68548E-03  0.62804E-03  0.55246E-03  0.46831E-03  0.39047E-03  0.34074E-03
  0.34074E-03  0.39047E-03  0.46831E-03  0.55246E-03  0.62804E-03  0.68548E-03
  0.71913E-03  0.72658E-03  0.70805E-03  0.66600E-03  0.60521E-03  0.53227E-03
  0.36101E-03  0.34583E-03  0.28548E-03  0.18652E-03  0.72686E-04  0.12168E-03
  0.26703E-03  0.40884E-03  0.53383E-03  0.63604E-03  0.71242E-03  0.76204E-03
  0.78595E-03  0.78688E-03  0.76840E-03  0.73397E-03  0.68642E-03  0.62830E-03
  0.56278E-03  0.49390E-03  0.42568E-03  0.36053E-03  0.29886E-03  0.24008E-03
  0.18389E-03  0.13091E-03  0.86441E-04  0.78482E-04  0.12862E-03  0.20701E-03
  0.29587E-03  0.38549E-03  0.46740E-03  0.53408E-03  0.57955E-03  0.59994E-03
  0.59396E-03  0.56313E-03  0.51224E-03  0.45009E-03  0.39053E-03  0.35241E-03
  0.35241E-03  0.39053E-03  0.45009E-03  0.51224E-03  0.56313E-03  0.59396E-03
  0.59994E-03  0.57955E-03  0.53408E-03  0.46740E-03  0.38549E-03  0.29587E-03
  0.32685E-03  0.31799E-03  0.26569E-03  0.17648E-03  0.74105E-04  0.11545E-03
  0.25008E-03  0.38387E-03  0.50332E-03  0.60286E-03  0.67943E-03  0.73161E-03
  0.76018E-03  0.76840E-03  0.76105E-03  0.74249E-03  0.71545E-03  0.68162E-03
  0.64334E-03  0.60419E-03  0.56751E-03  0.53428E-03  0.50269E-03  0.46988E-03
  0.43357E-03  0.39172E-03  0.34148E-03  0.27978E-03  0.20638E-03  0.13082E-03
  0.99497E-04  0.16016E-03  0.25120E-03  0.33848E-03  0.40976E-03  0.45863E-03
  0.48219E-03  0.48061E-03  0.45745E-03  0.42051E-03  0.38216E-03  0.35733E-03
  0.35733E-03  0.38216E-03  0.42051E-03  0.45745E-03  0.48061E-03  0.48219E-03
  0.45863E-03  0.40976E-03  0.33848E-03  0.25120E-03  0.16016E-03  0.99497E-04
  0.31696E-03  0.31384E-03  0.26939E-03  0.18956E-03  0.92416E-04  0.92152E-04
  0.21027E-03  0.33493E-03  0.44814E-03  0.54428E-03  0.62086E-03  0.67702E-03
  0.71368E-03  0.73397E-03  0.74249E-03  0.74366E-03  0.74047E-03  0.73477E-03
  0.72848E-03  0.72393E-03  0.72251E-03  0.72324E-03  0.72290E-03  0.71781E-03
  0.70497E-03  0.68149E-03  0.64379E-03  0.58841E-03  0.51409E-03  0.42356E-03
  0.32447E-03  0.23262E-03  0.18091E-03  0.20062E-03  0.26134E-03  0.32290E-03
  0.36850E-03  0.39272E-03  0.39607E-03  0.38423E-03  0.36697E-03  0.35491E-03
  0.35491E-03  0.36698E-03  0.38423E-03  0.39607E-03  0.39272E-03  0.36850E-03
  0.32290E-03  0.26134E-03  0.20062E-03  0.18091E-03  0.23262E-03  0.32447E-03
  0.33437E-03  0.33723E-03  0.30087E-03  0.22999E-03  0.13701E-03  0.74299E-04
  0.15058E-03  0.26321E-03  0.36985E-03  0.46283E-03  0.54014E-03  0.60193E-03
  0.64977E-03  0.68642E-03  0.71545E-03  0.74047E-03  0.76454E-03  0.79007E-03
  0.81873E-03  0.85108E-03  0.88581E-03  0.91966E-03  0.94843E-03  0.96825E-03
  0.97581E-03  0.96774E-03  0.94040E-03  0.89088E-03  0.81838E-03  0.72485E-03
  0.61512E-03  0.49745E-03  0.38492E-03  0.29665E-03  0.25393E-03  0.25994E-03
  0.29047E-03  0.32113E-03  0.34060E-03  0.34767E-03  0.34699E-03  0.34470E-03
  0.34470E-03  0.34699E-03  0.34767E-03  0.34060E-03  0.32113E-03  0.29047E-03
  0.25994E-03  0.25393E-03  0.29665E-03  0.38492E-03  0.49745E-03  0.61512E-03
  0.37643E-03  0.38586E-03  0.35840E-03  0.29721E-03  0.21155E-03  0.12103E-03
  0.94107E-04  0.17231E-03  0.26963E-03  0.36085E-03  0.44127E-03  0.51102E-03
  0.57237E-03  0.62831E-03  0.68162E-03  0.73477E-03  0.79007E-03  0.84960E-03
  0.91423E-03  0.98250E-03  0.10505E-02  0.11130E-02  0.11652E-02  0.12033E-02
  0.12243E-02  0.12252E-02  0.12036E-02  0.11580E-02  0.10879E-02  0.99456E-03
  0.88100E-03  0.75363E-03  0.62243E-03  0.49984E-03  0.39891E-03  0.33098E-03
  0.30029E-03  0.29803E-03  0.30794E-03  0.31805E-03  0.32412E-03  0.32654E-03
  0.32654E-03  0.32412E-03  0.31805E-03  0.30794E-03  0.29803E-03  0.30029E-03
  0.33098E-03  0.39891E-03  0.49984E-03  0.62243E-03  0.75363E-03  0.88100E-03
  0.43421E-03  0.45072E-03  0.43301E-03  0.38276E-03  0.30772E-03  0.21971E-03
  0.13640E-03  0.10431E-03  0.15978E-03  0.24396E-03  0.32858E-03  0.40854E-03
  0.48544E-03  0.56278E-03  0.64334E-03  0.72848E-03  0.81873E-03  0.91423E-03
  0.10139E-02  0.11141E-02  0.12090E-02  0.12919E-02  0.13575E-02  0.14023E-02
  0.14242E-02  0.14227E-02  0.13983E-02  0.13522E-02  0.12849E-02  0.11962E-02
  0.10874E-02  0.96267E-03  0.82954E-03  0.69690E-03  0.57370E-03  0.46852E-03
  0.38871E-03  0.33765E-03  0.31189E-03  0.30254E-03  0.30068E-03  0.30082E-03
  0.30082E-03  0.30068E-03  0.30254E-03  0.31189E-03  0.33765E-03  0.38871E-03
  0.46852E-03  0.57370E-03  0.69690E-03  0.82954E-03  0.96267E-03  0.10874E-02
  0.49694E-03  0.52207E-03  0.51571E-03  0.47757E-03  0.41440E-03  0.33601E-03
  0.25112E-03  0.16865E-03  0.11296E-03  0.13426E-03  0.20967E-03  0.29864E-03
  0.39286E-03  0.49390E-03  0.60419E-03  0.72393E-03  0.85108E-03  0.98250E-03
  0.11141E-02  0.12401E-02  0.13529E-02  0.14443E-02  0.15078E-02  0.15403E-02
  0.15424E-02  0.15187E-02  0.14763E-02  0.14215E-02  0.13568E-02  0.12809E-02
  0.11916E-02  0.10886E-02  0.97404E-03  0.85176E-03  0.72710E-03  0.60773E-03
  0.50197E-03  0.41563E-03  0.35064E-03  0.30631E-03  0.28034E-03  0.26899E-03
  0.26899E-03  0.28034E-03  0.30631E-03  0.35064E-03  0.41563E-03  0.50197E-03
  0.60773E-03  0.72710E-03  0.85176E-03  0.97404E-03  0.10886E-02  0.11916E-02
  0.54814E-03  0.58542E-03  0.59532E-03  0.57366E-03  0.52434E-03  0.45606E-03
  0.37703E-03  0.29210E-03  0.20469E-03  0.12703E-03  0.11241E-03  0.18843E-03
  0.29874E-03  0.42568E-03  0.56751E-03  0.72251E-03  0.88581E-03  0.10505E-02
  0.12090E-02  0.13529E-02  0.14720E-02  0.15553E-02  0.15942E-02  0.15862E-02
  0.15375E-02  0.14625E-02  0.13799E-02  0.13054E-02  0.12451E-02  0.11954E-02
  0.11471E-02  0.10917E-02  0.10227E-02  0.93650E-03  0.83388E-03  0.72131E-03
  0.60853E-03  0.50334E-03  0.40927E-03  0.32886E-03  0.26754E-03  0.23355E-03
  0.23355E-03  0.26754E-03  0.32886E-03  0.40927E-03  0.50334E-03  0.60853E-03
  0.72131E-03  0.83388E-03  0.93650E-03  0.10227E-02  0.10917E-02  0.11471E-02
  0.54087E-03  0.59099E-03  0.62689E-03  0.63743E-03  0.61680E-03  0.56733E-03
  0.49777E-03  0.41705E-03  0.32893E-03  0.23278E-03  0.13430E-03  0.10131E-03
  0.20787E-03  0.36053E-03  0.53428E-03  0.72324E-03  0.91966E-03  0.11130E-02
  0.12919E-02  0.14443E-02  0.15553E-02  0.16088E-02  0.15931E-02  0.15076E-02
  0.13683E-02  0.12057E-02  0.10573E-02  0.95337E-03  0.90518E-03  0.90266E-03
  0.92339E-03  0.94466E-03  0.94982E-03  0.92834E-03  0.87566E-03  0.79454E-03
  0.69406E-03  0.58447E-03  0.47270E-03  0.36347E-03  0.26493E-03  0.19780E-03
  0.19780E-03  0.26493E-03  0.36347E-03  0.47270E-03  0.58447E-03  0.69406E-03
  0.79454E-03  0.87566E-03  0.92834E-03  0.94982E-03  0.94466E-03  0.92339E-03
  0.37983E-03  0.42794E-03  0.49925E-03  0.57425E-03  0.62478E-03  0.63117E-03
  0.59393E-03  0.52804E-03  0.44653E-03  0.35090E-03  0.23652E-03  0.11323E-03
  0.12777E-03  0.29886E-03  0.50269E-03  0.72290E-03  0.94843E-03  0.11652E-02
  0.13575E-02  0.15078E-02  0.15942E-02  0.15931E-02  0.14887E-02  0.12845E-02
  0.10104E-02  0.72091E-03  0.48176E-03  0.34509E-03  0.32698E-03  0.40377E-03
  0.52788E-03  0.65415E-03  0.75589E-03  0.82126E-03  0.84352E-03  0.81900E-03
  0.75120E-03  0.65120E-03  0.53187E-03  0.40273E-03  0.27238E-03  0.16572E-03
  0.16572E-03  0.27238E-03  0.40273E-03  0.53187E-03  0.65120E-03  0.75120E-03
  0.81900E-03  0.84352E-03  0.82126E-03  0.75589E-03  0.65415E-03  0.52788E-03
  0.65763E-04  0.69666E-04  0.89645E-04  0.25221E-03  0.43981E-03  0.57426E-03
  0.62504E-03  0.60554E-03  0.54414E-03  0.45610E-03  0.34004E-03  0.19423E-03
  0.81135E-04  0.24008E-03  0.46989E-03  0.71781E-03  0.96825E-03  0.12033E-02
  0.14023E-02  0.15403E-02  0.15862E-02  0.15076E-02  0.12845E-02  0.92486E-03
  0.47613E-03  0.45641E-04  0.33407E-03  0.49907E-03  0.45542E-03  0.25504E-03
  0.47089E-04  0.27436E-03  0.47950E-03  0.63635E-03  0.74476E-03  0.79478E-03
  0.77814E-03  0.70177E-03  0.58446E-03  0.44335E-03  0.28869E-03  0.14208E-03
  0.14208E-03  0.28869E-03  0.44335E-03  0.58446E-03  0.70177E-03  0.77814E-03
  0.79478E-03  0.74476E-03  0.63635E-03  0.47950E-03  0.27436E-03  0.47089E-04
  0.70708E-03  0.81558E-03  0.71350E-03  0.41302E-03  0.52010E-04  0.33356E-03
  0.54672E-03  0.62475E-03  0.60991E-03  0.54085E-03  0.43061E-03  0.27916E-03
  0.10515E-03  0.18389E-03  0.43357E-03  0.70497E-03  0.97581E-03  0.12243E-02
  0.14242E-02  0.15424E-02  0.15375E-02  0.13683E-02  0.10104E-02  0.47613E-03
  0.17614E-03  0.81099E-03  0.12836E-02  0.14639E-02  0.13226E-02  0.95227E-03
  0.51107E-03  0.13614E-03  0.19725E-03  0.42117E-03  0.60545E-03  0.73405E-03
  0.78071E-03  0.74016E-03  0.63341E-03  0.48609E-03  0.31278E-03  0.13099E-03
  0.13099E-03  0.31278E-03  0.48609E-03  0.63341E-03  0.74016E-03  0.78071E-03
  0.73405E-03  0.60545E-03  0.42117E-03  0.19725E-03  0.13614E-03  0.51107E-03
  0.14091E-02  0.16904E-02  0.16497E-02  0.12626E-02  0.66633E-03  0.78859E-04
  0.35559E-03  0.57632E-03  0.63822E-03  0.60404E-03  0.50792E-03  0.35835E-03
  0.16485E-03  0.13091E-03  0.39172E-03  0.68149E-03  0.96774E-03  0.12252E-02
  0.14227E-02  0.15187E-02  0.14625E-02  0.12057E-02  0.72091E-03  0.45640E-04
  0.81099E-03  0.16163E-02  0.21879E-02  0.23536E-02  0.20825E-02  0.15201E-02
  0.90173E-03  0.40590E-03  0.10123E-03  0.23702E-03  0.46446E-03  0.66071E-03
  0.77321E-03  0.77530E-03  0.68412E-03  0.53290E-03  0.34312E-03  0.13242E-03
  0.13242E-03  0.34312E-03  0.53290E-03  0.68411E-03  0.77530E-03  0.77321E-03
  0.66071E-03  0.46446E-03  0.23702E-03  0.10123E-03  0.40590E-03  0.90173E-03
  0.18035E-02  0.22748E-02  0.23654E-02  0.19902E-02  0.12815E-02  0.50301E-03
  0.11824E-03  0.48529E-03  0.63787E-03  0.65062E-03  0.57581E-03  0.43288E-03
  0.23187E-03  0.86441E-04  0.34148E-03  0.64379E-03  0.94040E-03  0.12036E-02
  0.13983E-02  0.14763E-02  0.13799E-02  0.10573E-02  0.48176E-03  0.33407E-03
  0.12836E-02  0.21879E-02  0.27955E-02  0.29037E-02  0.24924E-02  0.17651E-02
  0.10293E-02  0.49806E-03  0.18924E-03  0.14121E-03  0.36042E-03  0.60415E-03
  0.77532E-03  0.81856E-03  0.74213E-03  0.58534E-03  0.37797E-03  0.14175E-03
  0.14175E-03  0.37797E-03  0.58534E-03  0.74213E-03  0.81856E-03  0.77532E-03
  0.60415E-03  0.36042E-03  0.14121E-03  0.18924E-03  0.49806E-03  0.10293E-02
  0.16195E-02  0.22297E-02  0.24935E-02  0.22523E-02  0.15908E-02  0.77248E-03
  0.70776E-04  0.40425E-03  0.63127E-03  0.69009E-03  0.63893E-03  0.50511E-03
  0.30232E-03  0.78482E-04  0.27978E-03  0.58841E-03  0.89088E-03  0.11580E-02
  0.13522E-02  0.14215E-02  0.13054E-02  0.95337E-03  0.34509E-03  0.49907E-03
  0.14639E-02  0.23536E-02  0.29037E-02  0.29123E-02  0.23874E-02  0.15819E-02
  0.84731E-03  0.40007E-03  0.19589E-03  0.13659E-03  0.31764E-03  0.59024E-03
  0.80621E-03  0.88044E-03  0.81182E-03  0.64465E-03  0.41659E-03  0.15416E-03
  0.15416E-03  0.41659E-03  0.64465E-03  0.81182E-03  0.88044E-03  0.80621E-03
  0.59024E-03  0.31764E-03  0.13659E-03  0.19588E-03  0.40007E-03  0.84731E-03
  0.88162E-03  0.15251E-02  0.19474E-02  0.19233E-02  0.14598E-02  0.76772E-03
  0.11421E-03  0.38197E-03  0.64257E-03  0.73259E-03  0.70094E-03  0.57658E-03
  0.37658E-03  0.12862E-03  0.20638E-03  0.51409E-03  0.81838E-03  0.10879E-02
  0.12849E-02  0.13568E-02  0.12451E-02  0.90518E-03  0.32698E-03  0.45542E-03
  0.13226E-02  0.20825E-02  0.24924E-02  0.23874E-02  0.18151E-02  0.10532E-02
  0.45635E-03  0.22697E-03  0.17639E-03  0.16614E-03  0.34119E-03  0.63566E-03
  0.87932E-03  0.96748E-03  0.89530E-03  0.71159E-03  0.45917E-03  0.16734E-03
  0.16734E-03  0.45917E-03  0.71159E-03  0.89530E-03  0.96748E-03  0.87932E-03
  0.63565E-03  0.34119E-03  0.16614E-03  0.17639E-03  0.22697E-03  0.45635E-03
  0.92824E-04  0.50176E-03  0.10078E-02  0.11925E-02  0.98758E-03  0.52210E-03
  0.81486E-04  0.43274E-03  0.68357E-03  0.78376E-03  0.76337E-03  0.64735E-03
  0.45420E-03  0.20701E-03  0.13082E-03  0.42356E-03  0.72485E-03  0.99456E-03
  0.11962E-02  0.12809E-02  0.11954E-02  0.90266E-03  0.40377E-03  0.25504E-03
  0.95227E-03  0.15201E-02  0.17651E-02  0.15819E-02  0.10532E-02  0.44044E-03
  0.10210E-03  0.19547E-03  0.19154E-03  0.22071E-03  0.43071E-03  0.74818E-03
  0.99961E-03  0.10803E-02  0.99120E-03  0.78499E-03  0.50524E-03  0.18084E-03
  0.18084E-03  0.50524E-03  0.78499E-03  0.99120E-03  0.10803E-02  0.99961E-03
  0.74818E-03  0.43071E-03  0.22071E-03  0.19154E-03  0.19547E-03  0.10210E-03
  0.80269E-03  0.43924E-03  0.27509E-03  0.46181E-03  0.44132E-03  0.20332E-03
  0.22462E-03  0.53248E-03  0.74755E-03  0.84093E-03  0.82389E-03  0.71507E-03
  0.53227E-03  0.29587E-03  0.99497E-04  0.32447E-03  0.61512E-03  0.88100E-03
  0.10874E-02  0.11916E-02  0.11471E-02  0.92339E-03  0.52788E-03  0.47089E-04
  0.51107E-03  0.90174E-03  0.10293E-02  0.84731E-03  0.45635E-03  0.10210E-03
  0.20185E-03  0.23662E-03  0.22518E-03  0.32161E-03  0.59303E-03  0.92738E-03
  0.11620E-02  0.12126E-02  0.10941E-02  0.86075E-03  0.55224E-03  0.19468E-03
  0.19468E-03  0.55224E-03  0.86075E-03  0.10941E-02  0.12126E-02  0.11620E-02
  0.92738E-03  0.59303E-03  0.32161E-03  0.22518E-03  0.23662E-03  0.20185E-03
  0.10350E-02  0.83974E-03  0.53306E-03  0.30483E-03  0.20519E-03  0.21109E-03
  0.40435E-03  0.63941E-03  0.81410E-03  0.89303E-03  0.87542E-03  0.77430E-03
  0.60521E-03  0.38549E-03  0.16016E-03  0.23262E-03  0.49745E-03  0.75363E-03
  0.96267E-03  0.10886E-02  0.10917E-02  0.94466E-03  0.65415E-03  0.27436E-03
  0.13614E-03  0.40590E-03  0.49806E-03  0.40007E-03  0.22697E-03  0.19547E-03
  0.23662E-03  0.24204E-03  0.29868E-03  0.50124E-03  0.83203E-03  0.11592E-02
  0.13491E-02  0.13512E-02  0.11952E-02  0.93239E-03  0.59578E-03  0.20836E-03
  0.20836E-03  0.59578E-03  0.93239E-03  0.11952E-02  0.13512E-02  0.13491E-02
  0.11592E-02  0.83203E-03  0.50124E-03  0.29868E-03  0.24204E-03  0.23662E-03
  0.80910E-03  0.76192E-03  0.58822E-03  0.40758E-03  0.31809E-03  0.36855E-03
  0.53070E-03  0.71768E-03  0.86030E-03  0.92548E-03  0.90828E-03  0.81766E-03
  0.66600E-03  0.46740E-03  0.25120E-03  0.18091E-03  0.38492E-03  0.62243E-03
  0.82954E-03  0.97404E-03  0.10227E-02  0.94982E-03  0.75589E-03  0.47950E-03
  0.19725E-03  0.10123E-03  0.18924E-03  0.19588E-03  0.17639E-03  0.19154E-03
  0.22518E-03  0.29868E-03  0.47582E-03  0.77584E-03  0.11275E-02  0.14097E-02
  0.15317E-02  0.14771E-02  0.12830E-02  0.99236E-03  0.63096E-03  0.22067E-03
  0.22067E-03  0.63096E-03  0.99236E-03  0.12830E-02  0.14771E-02  0.15317E-02
  0.14097E-02  0.11275E-02  0.77584E-03  0.47582E-03  0.29868E-03  0.22518E-03
  0.36622E-03  0.41558E-03  0.37983E-03  0.32746E-03  0.33284E-03  0.42905E-03
  0.58647E-03  0.74915E-03  0.87072E-03  0.92733E-03  0.91470E-03  0.83866E-03
  0.70805E-03  0.53408E-03  0.33848E-03  0.20062E-03  0.29665E-03  0.49984E-03
  0.69690E-03  0.85176E-03  0.93650E-03  0.92834E-03  0.82126E-03  0.63636E-03
  0.42117E-03  0.23702E-03  0.14121E-03  0.13659E-03  0.16614E-03  0.22071E-03
  0.32161E-03  0.50124E-03  0.77584E-03  0.11118E-02  0.14260E-02  0.16296E-02
  0.16753E-02  0.15693E-02  0.13448E-02  0.10325E-02  0.65290E-03  0.22981E-03
  0.22981E-03  0.65290E-03  0.10325E-02  0.13448E-02  0.15693E-02  0.16753E-02
  0.16296E-02  0.14260E-02  0.11118E-02  0.77584E-03  0.50124E-03  0.32161E-03
  0.11141E-03  0.77570E-04  0.11554E-03  0.17470E-03  0.27450E-03  0.41778E-03
  0.58149E-03  0.73194E-03  0.84131E-03  0.89554E-03  0.89200E-03  0.83378E-03
  0.72658E-03  0.57955E-03  0.40976E-03  0.26134E-03  0.25393E-03  0.39891E-03
  0.57370E-03  0.72710E-03  0.83388E-03  0.87566E-03  0.84352E-03  0.74476E-03
  0.60545E-03  0.46446E-03  0.36042E-03  0.31764E-03  0.34119E-03  0.43071E-03
  0.59303E-03  0.83203E-03  0.11275E-02  0.14260E-02  0.16586E-02  0.17728E-02
  0.17527E-02  0.16107E-02  0.13682E-02  0.10439E-02  0.65662E-03  0.23360E-03
  0.23360E-03  0.65662E-03  0.10439E-02  0.13682E-02  0.16107E-02  0.17527E-02
  0.17728E-02  0.16586E-02  0.14260E-02  0.11275E-02  0.83203E-03  0.59303E-03
  0.36912E-03  0.23581E-03  0.10660E-03  0.58869E-04  0.20140E-03  0.36725E-03
  0.53182E-03  0.67388E-03  0.77723E-03  0.83391E-03  0.84195E-03  0.80241E-03
  0.71913E-03  0.59994E-03  0.45863E-03  0.32290E-03  0.25994E-03  0.33098E-03
  0.46852E-03  0.60773E-03  0.72131E-03  0.79454E-03  0.81900E-03  0.79478E-03
  0.73405E-03  0.66071E-03  0.60415E-03  0.59024E-03  0.63566E-03  0.74818E-03
  0.92738E-03  0.11592E-02  0.14097E-02  0.16296E-02  0.17728E-02  0.18141E-02
  0.17506E-02  0.15906E-02  0.13429E-02  0.10189E-02  0.63764E-03  0.22982E-03
  0.22982E-03  0.63764E-03  0.10189E-02  0.13429E-02  0.15906E-02  0.17506E-02
  0.18141E-02  0.17728E-02  0.16296E-02  0.14097E-02  0.11592E-02  0.92738E-03
  0.51352E-03  0.37436E-03  0.22578E-03  0.90315E-04  0.14049E-03  0.29833E-03
  0.45425E-03  0.58810E-03  0.68837E-03  0.74911E-03  0.76816E-03  0.74586E-03
  0.68548E-03  0.59396E-03  0.48219E-03  0.36850E-03  0.29047E-03  0.30029E-03
  0.38871E-03  0.50197E-03  0.60853E-03  0.69406E-03  0.75120E-03  0.77814E-03
  0.78072E-03  0.77321E-03  0.77532E-03  0.80621E-03  0.87932E-03  0.99961E-03
  0.11620E-02  0.13491E-02  0.15317E-02  0.16753E-02  0.17527E-02  0.17506E-02
  0.16674E-02  0.15039E-02  0.12625E-02  0.95255E-03  0.59373E-03  0.21703E-03
  0.21703E-03  0.59373E-03  0.95255E-03  0.12625E-02  0.15039E-02  0.16674E-02
  0.17506E-02  0.17527E-02  0.16753E-02  0.15317E-02  0.13491E-02  0.11620E-02
  0.55852E-03  0.42831E-03  0.28599E-03  0.14956E-03  0.11251E-03  0.23071E-03
  0.36812E-03  0.49043E-03  0.58581E-03  0.64814E-03  0.67510E-03  0.66729E-03
  0.62804E-03  0.56313E-03  0.48061E-03  0.39272E-03  0.32113E-03  0.29803E-03
  0.33765E-03  0.41563E-03  0.50334E-03  0.58447E-03  0.65120E-03  0.70177E-03
  0.74016E-03  0.77530E-03  0.81856E-03  0.88044E-03  0.96748E-03  0.10803E-02
  0.12126E-02  0.13512E-02  0.14771E-02  0.15693E-02  0.16107E-02  0.15906E-02
  0.15039E-02  0.13482E-02  0.11254E-02  0.84520E-03  0.52581E-03  0.19493E-03
  0.19493E-03  0.52581E-03  0.84520E-03  0.11254E-02  0.13482E-02  0.15039E-02
  0.15906E-02  0.16107E-02  0.15693E-02  0.14771E-02  0.13512E-02  0.12126E-02
  0.52758E-03  0.41747E-03  0.29652E-03  0.18020E-03  0.11955E-03  0.18390E-03
  0.29218E-03  0.39573E-03  0.48003E-03  0.53852E-03  0.56910E-03  0.57276E-03
  0.55246E-03  0.51224E-03  0.45745E-03  0.39607E-03  0.34060E-03  0.30794E-03
  0.31189E-03  0.35064E-03  0.40927E-03  0.47270E-03  0.53187E-03  0.58446E-03
  0.63341E-03  0.68412E-03  0.74213E-03  0.81182E-03  0.89530E-03  0.99120E-03
  0.10941E-02  0.11952E-02  0.12830E-02  0.13448E-02  0.13682E-02  0.13429E-02
  0.12625E-02  0.11254E-02  0.93521E-03  0.70109E-03  0.43680E-03  0.16410E-03
  0.16410E-03  0.43680E-03  0.70109E-03  0.93521E-03  0.11254E-02  0.12625E-02
  0.13429E-02  0.13682E-02  0.13448E-02  0.12830E-02  0.11952E-02  0.10941E-02
  0.43044E-03  0.34869E-03  0.25911E-03  0.17519E-03  0.13015E-03  0.16264E-03
  0.23661E-03  0.31400E-03  0.38034E-03  0.42957E-03  0.45995E-03  0.47228E-03
  0.46831E-03  0.45009E-03  0.42051E-03  0.38423E-03  0.34767E-03  0.31805E-03
  0.30254E-03  0.30631E-03  0.32886E-03  0.36347E-03  0.40273E-03  0.44335E-03
  0.48609E-03  0.53290E-03  0.58534E-03  0.64465E-03  0.71159E-03  0.78499E-03
  0.86075E-03  0.93239E-03  0.99236E-03  0.10325E-02  0.10439E-02  0.10189E-02
  0.95255E-03  0.84520E-03  0.70109E-03  0.52664E-03  0.32974E-03  0.12529E-03
  0.12529E-03  0.32974E-03  0.52664E-03  0.70109E-03  0.84520E-03  0.95255E-03
  0.10189E-02  0.10439E-02  0.10325E-02  0.99236E-03  0.93239E-03  0.86075E-03
  0.28097E-03  0.23345E-03  0.18358E-03  0.14302E-03  0.13097E-03  0.15580E-03
  0.20124E-03  0.25105E-03  0.29676E-03  0.33441E-03  0.36260E-03  0.38123E-03
  0.39047E-03  0.39053E-03  0.38216E-03  0.36698E-03  0.34699E-03  0.32412E-03
  0.30068E-03  0.28034E-03  0.26754E-03  0.26493E-03  0.27238E-03  0.28869E-03
  0.31278E-03  0.34312E-03  0.37797E-03  0.41659E-03  0.45917E-03  0.50524E-03
  0.55224E-03  0.59578E-03  0.63096E-03  0.65290E-03  0.65662E-03  0.63764E-03
  0.59373E-03  0.52581E-03  0.43680E-03  0.32974E-03  0.20781E-03  0.79501E-04
  0.79501E-04  0.20781E-03  0.32974E-03  0.43680E-03  0.52581E-03  0.59373E-03
  0.63764E-03  0.65662E-03  0.65290E-03  0.63096E-03  0.59578E-03  0.55224E-03
  0.10434E-03  0.99223E-04  0.99929E-04  0.10946E-03  0.12817E-03  0.15383E-03