       #
       # Generated by the Wannier90 code http://www.wannier.org
       # On 10May2024 at 21:04:43 
       #
CRYSTAL
PRIMVEC
   2.7281430   0.0000000   0.0000000
   0.0000000   2.7281430   0.0000000
   0.0000000   0.0000000   3.7789840
CONVVEC
   2.7281430   0.0000000   0.0000000
   0.0000000   2.7281430   0.0000000
   0.0000000   0.0000000   3.7789840
PRIMCOORD
     2  1
Fe      0.0000000   0.0000000   0.0000000
Pt      1.3640715   1.3640715   1.8894920


BEGIN_BLOCK_DATAGRID_3D
3D_field
BEGIN_DATAGRID_3D_UNKNOWN
    54    54    80
   -2.829185   -2.829185   -3.873459
   5.3552437   0.0000000   0.0000000
   0.0000000   5.3552437   0.0000000
   0.0000000   0.0000000   7.4634934
  0.27499E-02  0.23342E-02  0.15067E-02  0.66664E-03  0.32718E-03  0.43858E-03
  0.42368E-03  0.33095E-03  0.24244E-03  0.17369E-03  0.11663E-03  0.71720E-04
  0.49973E-04  0.61693E-04  0.96119E-04  0.14372E-03  0.20267E-03  0.26949E-03
  0.33605E-03  0.39355E-03  0.43028E-03  0.41365E-03  0.27571E-03  0.81362E-04
  0.62938E-03  0.12889E-02  0.18138E-02  0.19718E-02  0.16900E-02  0.11152E-02
  0.52524E-03  0.18360E-03  0.14566E-03  0.97081E-04  0.88064E-04  0.15052E-03
  0.19399E-03  0.21122E-03  0.20390E-03  0.17125E-03  0.11787E-03  0.60155E-04
  0.60155E-04  0.11787E-03  0.17125E-03  0.20390E-03  0.21122E-03  0.19399E-03
  0.15052E-03  0.88064E-04  0.97080E-04  0.14566E-03  0.18360E-03  0.52524E-03
  0.23342E-02  0.18323E-02  0.10077E-02  0.34607E-03  0.45868E-03  0.54506E-03
  0.44162E-03  0.30216E-03  0.21062E-03  0.16056E-03  0.12663E-03  0.10344E-03
  0.99888E-04  0.12208E-03  0.16370E-03  0.21713E-03  0.27933E-03  0.34618E-03
  0.40960E-03  0.46139E-03  0.49078E-03  0.46624E-03  0.32124E-03  0.59686E-04
  0.58550E-03  0.12265E-02  0.17174E-02  0.18322E-02  0.15136E-02  0.92686E-03
  0.37338E-03  0.21146E-03  0.24653E-03  0.17147E-03  0.79078E-04  0.84565E-04
  0.12334E-03  0.14693E-03  0.15174E-03  0.13452E-03  0.98985E-04  0.61797E-04
  0.61798E-04  0.98985E-04  0.13452E-03  0.15174E-03  0.14693E-03  0.12334E-03
  0.84565E-04  0.79079E-04  0.17147E-03  0.24653E-03  0.21146E-03  0.37338E-03
  0.15067E-02  0.10077E-02  0.34727E-03  0.39758E-03  0.63453E-03  0.58208E-03
  0.38670E-03  0.21588E-03  0.13732E-03  0.11308E-03  0.10153E-03  0.97757E-04
  0.11137E-03  0.14743E-03  0.19906E-03  0.25901E-03  0.32458E-03  0.39206E-03
  0.45383E-03  0.50234E-03  0.52901E-03  0.50823E-03  0.38380E-03  0.10237E-03
  0.39541E-03  0.93614E-03  0.13401E-02  0.14154E-02  0.11261E-02  0.63808E-03
  0.28276E-03  0.32050E-03  0.33264E-03  0.23917E-03  0.13072E-03  0.65887E-04
  0.61548E-04  0.83700E-04  0.10022E-03  0.10025E-03  0.86354E-04  0.71903E-04
  0.71904E-04  0.86354E-04  0.10025E-03  0.10022E-03  0.83700E-04  0.61548E-04
  0.65888E-04  0.13072E-03  0.23917E-03  0.33264E-03  0.32050E-03  0.28276E-03
  0.66664E-03  0.34607E-03  0.39758E-03  0.65939E-03  0.68370E-03  0.49533E-03
  0.25004E-03  0.94239E-04  0.82360E-04  0.85932E-04  0.77036E-04  0.72730E-04
  0.92096E-04  0.13955E-03  0.20214E-03  0.27040E-03  0.34119E-03  0.41108E-03
  0.47314E-03  0.52066E-03  0.54765E-03  0.53680E-03  0.44752E-03  0.23375E-03
  0.14548E-03  0.53941E-03  0.83944E-03  0.89721E-03  0.69871E-03  0.40628E-03
  0.32270E-03  0.38942E-03  0.37000E-03  0.28269E-03  0.19368E-03  0.13074E-03
  0.91799E-04  0.76857E-04  0.82525E-04  0.90424E-04  0.92622E-04  0.92199E-04
  0.92199E-04  0.92622E-04  0.90424E-04  0.82525E-04  0.76857E-04  0.91799E-04
  0.13074E-03  0.19368E-03  0.28269E-03  0.37000E-03  0.38942E-03  0.32270E-03
  0.32718E-03  0.45868E-03  0.63453E-03  0.68370E-03  0.54653E-03  0.29719E-03
  0.70971E-04  0.10427E-03  0.14959E-03  0.14006E-03  0.10888E-03  0.72414E-04
  0.60673E-04  0.11005E-03  0.18347E-03  0.26130E-03  0.33883E-03  0.41273E-03
  0.47693E-03  0.52542E-03  0.55399E-03  0.55288E-03  0.49740E-03  0.35688E-03
  0.13745E-03  0.18228E-03  0.38628E-03  0.45031E-03  0.37558E-03  0.30399E-03
  0.34907E-03  0.39237E-03  0.37166E-03  0.31691E-03  0.26323E-03  0.21879E-03
  0.17851E-03  0.14444E-03  0.12532E-03  0.12027E-03  0.12036E-03  0.12079E-03
  0.12079E-03  0.12036E-03  0.12027E-03  0.12532E-03  0.14444E-03  0.17851E-03
  0.21879E-03  0.26323E-03  0.31691E-03  0.37166E-03  0.39237E-03  0.34907E-03
  0.43858E-03  0.54506E-03  0.58208E-03  0.49533E-03  0.29719E-03  0.68937E-04
  0.12904E-03  0.22334E-03  0.24153E-03  0.21602E-03  0.17052E-03  0.11234E-03
  0.51074E-04  0.73646E-04  0.15751E-03  0.24532E-03  0.33008E-03  0.40866E-03
  0.47598E-03  0.52648E-03  0.55653E-03  0.56138E-03  0.52889E-03  0.44242E-03
  0.30050E-03  0.14795E-03  0.12404E-03  0.18295E-03  0.21716E-03  0.26840E-03
  0.33353E-03  0.37236E-03  0.37733E-03  0.36405E-03  0.34312E-03  0.31324E-03
  0.27262E-03  0.22883E-03  0.19398E-03  0.17263E-03  0.16076E-03  0.15480E-03
  0.15480E-03  0.16076E-03  0.17263E-03  0.19398E-03  0.22883E-03  0.27262E-03
  0.31324E-03  0.34312E-03  0.36405E-03  0.37733E-03  0.37236E-03  0.33353E-03
  0.42368E-03  0.44162E-03  0.38670E-03  0.25004E-03  0.70971E-04  0.12904E-03
  0.25173E-03  0.30778E-03  0.30949E-03  0.27766E-03  0.22460E-03  0.15378E-03
  0.68967E-04  0.43818E-04  0.13881E-03  0.23580E-03  0.32692E-03  0.40938E-03
  0.47904E-03  0.53081E-03  0.56110E-03  0.56781E-03  0.54685E-03  0.49165E-03
  0.40168E-03  0.29495E-03  0.21066E-03  0.18625E-03  0.21580E-03  0.27160E-03
  0.33178E-03  0.38083E-03  0.41354E-03  0.42981E-03  0.42764E-03  0.40421E-03
  0.36248E-03  0.31306E-03  0.26770E-03  0.23199E-03  0.20618E-03  0.19157E-03
  0.19157E-03  0.20618E-03  0.23199E-03  0.26770E-03  0.31306E-03  0.36248E-03
  0.40421E-03  0.42764E-03  0.42981E-03  0.41354E-03  0.38083E-03  0.33178E-03
  0.33096E-03  0.30216E-03  0.21588E-03  0.94240E-04  0.10427E-03  0.22334E-03
  0.30778E-03  0.34594E-03  0.34469E-03  0.31253E-03  0.25465E-03  0.17479E-03
  0.78474E-04  0.32534E-04  0.13873E-03  0.24245E-03  0.33773E-03  0.42170E-03
  0.49089E-03  0.54101E-03  0.56895E-03  0.57412E-03  0.55677E-03  0.51626E-03
  0.45401E-03  0.37971E-03  0.31312E-03  0.27607E-03  0.27880E-03  0.31444E-03
  0.36767E-03  0.42355E-03  0.47026E-03  0.49861E-03  0.50252E-03  0.48122E-03
  0.44054E-03  0.39004E-03  0.33831E-03  0.29078E-03  0.25196E-03  0.22887E-03
  0.22887E-03  0.25196E-03  0.29078E-03  0.33831E-03  0.39004E-03  0.44054E-03
  0.48122E-03  0.50252E-03  0.49861E-03  0.47026E-03  0.42355E-03  0.36767E-03
  0.24244E-03  0.21062E-03  0.13732E-03  0.82360E-04  0.14959E-03  0.24153E-03
  0.30949E-03  0.34469E-03  0.34596E-03  0.31408E-03  0.25212E-03  0.16613E-03
  0.64669E-04  0.51853E-04  0.16274E-03  0.26961E-03  0.36585E-03  0.44770E-03
  0.51210E-03  0.55599E-03  0.57756E-03  0.57748E-03  0.55812E-03  0.52183E-03
  0.47182E-03  0.41528E-03  0.36457E-03  0.33375E-03  0.33227E-03  0.36038E-03
  0.40954E-03  0.46625E-03  0.51604E-03  0.54717E-03  0.55382E-03  0.53701E-03
  0.50204E-03  0.45476E-03  0.40021E-03  0.34404E-03  0.29491E-03  0.26498E-03
  0.26498E-03  0.29491E-03  0.34404E-03  0.40021E-03  0.45476E-03  0.50204E-03
  0.53701E-03  0.55382E-03  0.54717E-03  0.51604E-03  0.46625E-03  0.40954E-03
  0.17369E-03  0.16056E-03  0.11308E-03  0.85933E-04  0.14006E-03  0.21602E-03
  0.27766E-03  0.31253E-03  0.31408E-03  0.28033E-03  0.21498E-03  0.12634E-03
  0.32032E-04  0.98486E-04  0.21034E-03  0.31665E-03  0.40975E-03  0.48500E-03
  0.53968E-03  0.57220E-03  0.58235E-03  0.57206E-03  0.54482E-03  0.50465E-03
  0.45634E-03  0.40680E-03  0.36532E-03  0.34151E-03  0.34233E-03  0.36920E-03
  0.41644E-03  0.47258E-03  0.52404E-03  0.55979E-03  0.57461E-03  0.56864E-03
  0.54411E-03  0.50314E-03  0.44883E-03  0.38798E-03  0.33260E-03  0.29841E-03
  0.29841E-03  0.33260E-03  0.38798E-03  0.44883E-03  0.50314E-03  0.54411E-03
  0.56864E-03  0.57461E-03  0.55978E-03  0.52403E-03  0.47258E-03  0.41644E-03
  0.11663E-03  0.12663E-03  0.10154E-03  0.77036E-04  0.10888E-03  0.17052E-03
  0.22460E-03  0.25465E-03  0.25212E-03  0.21498E-03  0.14792E-03  0.62598E-04
  0.61603E-04  0.16747E-03  0.27742E-03  0.37892E-03  0.46401E-03  0.52773E-03
  0.56787E-03  0.58406E-03  0.57741E-03  0.55092E-03  0.50915E-03  0.45761E-03
  0.40259E-03  0.35135E-03  0.31142E-03  0.28956E-03  0.29109E-03  0.31800E-03
  0.36626E-03  0.42605E-03  0.48524E-03  0.53337E-03  0.56410E-03  0.57462E-03
  0.56373E-03  0.53143E-03  0.48080E-03  0.42011E-03  0.36320E-03  0.32760E-03
  0.32760E-03  0.36320E-03  0.42011E-03  0.48080E-03  0.53143E-03  0.56373E-03
  0.57462E-03  0.56410E-03  0.53337E-03  0.48524E-03  0.42605E-03  0.36625E-03
  0.71721E-04  0.10344E-03  0.97758E-04  0.72731E-04  0.72414E-04  0.11234E-03
  0.15378E-03  0.17479E-03  0.16613E-03  0.12634E-03  0.62597E-04  0.51687E-04
  0.14615E-03  0.25284E-03  0.35689E-03  0.44869E-03  0.52056E-03  0.56787E-03
  0.58897E-03  0.58416E-03  0.55540E-03  0.50667E-03  0.44403E-03  0.37485E-03
  0.30707E-03  0.24819E-03  0.20381E-03  0.17792E-03  0.17608E-03  0.20391E-03
  0.25871E-03  0.32975E-03  0.40441E-03  0.47157E-03  0.52292E-03  0.55280E-03
  0.55771E-03  0.53705E-03  0.49456E-03  0.43928E-03  0.38541E-03  0.35098E-03
  0.35098E-03  0.38541E-03  0.43928E-03  0.49456E-03  0.53705E-03  0.55771E-03
  0.55280E-03  0.52292E-03  0.47157E-03  0.40441E-03  0.32975E-03  0.25871E-03
  0.49973E-04  0.99889E-04  0.11137E-03  0.92098E-04  0.60674E-04  0.51074E-04
  0.68967E-04  0.78474E-04  0.64668E-04  0.32031E-04  0.61603E-04  0.14615E-03
  0.24476E-03  0.34576E-03  0.43932E-03  0.51649E-03  0.57030E-03  0.59671E-03
  0.59440E-03  0.56395E-03  0.50794E-03  0.43169E-03  0.34338E-03  0.25317E-03
  0.17246E-03  0.11329E-03  0.81928E-04  0.64788E-04  0.43968E-04  0.49521E-04
  0.11266E-03  0.19904E-03  0.29193E-03  0.37951E-03  0.45206E-03  0.50215E-03
  0.52506E-03  0.51981E-03  0.49022E-03  0.44508E-03  0.39815E-03  0.36719E-03
  0.36719E-03  0.39815E-03  0.44508E-03  0.49022E-03  0.51981E-03  0.52506E-03
  0.50215E-03  0.45206E-03  0.37951E-03  0.29193E-03  0.19904E-03  0.11266E-03
  0.61694E-04  0.12209E-03  0.14743E-03  0.13955E-03  0.11005E-03  0.73647E-04
  0.43819E-04  0.32535E-04  0.51854E-04  0.98487E-04  0.16747E-03  0.25284E-03
  0.34576E-03  0.43625E-03  0.51475E-03  0.57289E-03  0.60441E-03  0.60565E-03
  0.57546E-03  0.51477E-03  0.42713E-03  0.31979E-03  0.20459E-03  0.10409E-03
  0.92469E-04  0.15990E-03  0.21781E-03  0.24554E-03  0.23852E-03  0.20054E-03
  0.14824E-03  0.12919E-03  0.18500E-03  0.27361E-03  0.35966E-03  0.42755E-03
  0.46934E-03  0.48228E-03  0.46898E-03  0.43740E-03  0.40059E-03  0.37532E-03
  0.37532E-03  0.40059E-03  0.43740E-03  0.46898E-03  0.48228E-03  0.46934E-03
  0.42755E-03  0.35966E-03  0.27361E-03  0.18500E-03  0.12919E-03  0.14824E-03
  0.96120E-04  0.16370E-03  0.19906E-03  0.20214E-03  0.18347E-03  0.15751E-03
  0.13881E-03  0.13873E-03  0.16274E-03  0.21034E-03  0.27742E-03  0.35689E-03
  0.43932E-03  0.51475E-03  0.57401E-03  0.60927E-03  0.61457E-03  0.58647E-03
  0.52420E-03  0.42960E-03  0.30796E-03  0.17044E-03  0.65518E-04  0.15821E-03
  0.28681E-03  0.39571E-03  0.47253E-03  0.50977E-03  0.50458E-03  0.45978E-03
  0.38463E-03  0.29715E-03  0.23006E-03  0.22551E-03  0.27901E-03  0.34657E-03
  0.40057E-03  0.42996E-03  0.43343E-03  0.41704E-03  0.39263E-03  0.37487E-03
  0.37487E-03  0.39263E-03  0.41704E-03  0.43343E-03  0.42996E-03  0.40057E-03
  0.34657E-03  0.27901E-03  0.22551E-03  0.23006E-03  0.29715E-03  0.38463E-03
  0.14372E-03  0.21713E-03  0.25901E-03  0.27040E-03  0.26130E-03  0.24532E-03
  0.23580E-03  0.24245E-03  0.26961E-03  0.31665E-03  0.37892E-03  0.44869E-03
  0.51649E-03  0.57289E-03  0.60927E-03  0.61804E-03  0.59335E-03  0.53221E-03
  0.43486E-03  0.30492E-03  0.15150E-03  0.62909E-04  0.22103E-03  0.39199E-03
  0.54639E-03  0.67221E-03  0.75943E-03  0.80107E-03  0.79478E-03  0.74327E-03
  0.65427E-03  0.54100E-03  0.42322E-03  0.32826E-03  0.28593E-03  0.30059E-03
  0.34010E-03  0.37402E-03  0.38954E-03  0.38721E-03  0.37554E-03  0.36573E-03
  0.36573E-03  0.37554E-03  0.38721E-03  0.38954E-03  0.37402E-03  0.34010E-03
  0.30059E-03  0.28593E-03  0.32826E-03  0.42322E-03  0.54100E-03  0.65427E-03
  0.20267E-03  0.27933E-03  0.32458E-03  0.34119E-03  0.33883E-03  0.33008E-03
  0.32692E-03  0.33773E-03  0.36585E-03  0.40975E-03  0.46401E-03  0.52056E-03
  0.57030E-03  0.60441E-03  0.61457E-03  0.59335E-03  0.53539E-03  0.43883E-03
  0.30565E-03  0.14249E-03  0.65952E-04  0.25964E-03  0.46257E-03  0.65476E-03
  0.82420E-03  0.95984E-03  0.10520E-02  0.10943E-02  0.10850E-02  0.10269E-02
  0.92673E-03  0.79608E-03  0.65160E-03  0.51358E-03  0.40362E-03  0.34007E-03
  0.32467E-03  0.33581E-03  0.34924E-03  0.35420E-03  0.35180E-03  0.34814E-03
  0.34814E-03  0.35180E-03  0.35420E-03  0.34924E-03  0.33581E-03  0.32467E-03
  0.34007E-03  0.40362E-03  0.51358E-03  0.65160E-03  0.79608E-03  0.92673E-03
  0.26949E-03  0.34618E-03  0.39206E-03  0.41108E-03  0.41273E-03  0.40866E-03
  0.40938E-03  0.42170E-03  0.44770E-03  0.48500E-03  0.52773E-03  0.56787E-03
  0.59671E-03  0.60565E-03  0.58647E-03  0.53221E-03  0.43883E-03  0.30642E-03
  0.13911E-03  0.62484E-04  0.27677E-03  0.50104E-03  0.72033E-03  0.92227E-03
  0.10960E-02  0.12317E-02  0.13213E-02  0.13598E-02  0.13461E-02  0.12825E-02
  0.11750E-02  0.10340E-02  0.87470E-03  0.71432E-03  0.56938E-03  0.45411E-03
  0.37840E-03  0.34143E-03  0.32942E-03  0.32646E-03  0.32449E-03  0.32273E-03
  0.32273E-03  0.32449E-03  0.32646E-03  0.32942E-03  0.34143E-03  0.37840E-03
  0.45411E-03  0.56938E-03  0.71432E-03  0.87470E-03  0.10340E-02  0.11750E-02
  0.33605E-03  0.40960E-03  0.45383E-03  0.47314E-03  0.47693E-03  0.47598E-03
  0.47904E-03  0.49089E-03  0.51210E-03  0.53968E-03  0.56787E-03  0.58897E-03
  0.59440E-03  0.57546E-03  0.52420E-03  0.43486E-03  0.30565E-03  0.13911E-03
  0.59381E-04  0.28129E-03  0.51655E-03  0.75202E-03  0.97396E-03  0.11705E-02
  0.13327E-02  0.14540E-02  0.15300E-02  0.15585E-02  0.15392E-02  0.14738E-02
  0.13668E-02  0.12269E-02  0.10664E-02  0.89926E-03  0.73837E-03  0.59531E-03
  0.47959E-03  0.39619E-03  0.34323E-03  0.31316E-03  0.29752E-03  0.29077E-03
  0.29077E-03  0.29752E-03  0.31316E-03  0.34323E-03  0.39619E-03  0.47959E-03
  0.59531E-03  0.73837E-03  0.89926E-03  0.10664E-02  0.12269E-02  0.13668E-02
  0.39355E-03  0.46139E-03  0.50234E-03  0.52066E-03  0.52542E-03  0.52648E-03
  0.53081E-03  0.54101E-03  0.55599E-03  0.57220E-03  0.58406E-03  0.58416E-03
  0.56395E-03  0.51477E-03  0.42960E-03  0.30492E-03  0.14249E-03  0.62484E-04
  0.28129E-03  0.51989E-03  0.76234E-03  0.99357E-03  0.11992E-02  0.13688E-02
  0.14972E-02  0.15836E-02  0.16300E-02  0.16392E-02  0.16131E-02  0.15529E-02
  0.14601E-02  0.13393E-02  0.11974E-02  0.10425E-02  0.88359E-03  0.73089E-03
  0.59431E-03  0.47996E-03  0.38909E-03  0.32119E-03  0.27637E-03  0.25443E-03
  0.25443E-03  0.27637E-03  0.32119E-03  0.38909E-03  0.47996E-03  0.59431E-03
  0.73089E-03  0.88359E-03  0.10425E-02  0.11974E-02  0.13393E-02  0.14601E-02
  0.43028E-03  0.49078E-03  0.52901E-03  0.54765E-03  0.55399E-03  0.55653E-03
  0.56110E-03  0.56895E-03  0.57756E-03  0.58235E-03  0.57741E-03  0.55540E-03
  0.50794E-03  0.42713E-03  0.30796E-03  0.15150E-03  0.65952E-04  0.27677E-03
  0.51655E-03  0.76234E-03  0.99737E-03  0.12043E-02  0.13687E-02  0.14831E-02
  0.15478E-02  0.15703E-02  0.15632E-02  0.15393E-02  0.15059E-02  0.14631E-02
  0.14060E-02  0.13302E-02  0.12338E-02  0.11170E-02  0.98334E-03  0.84107E-03
  0.70099E-03  0.57090E-03  0.45345E-03  0.35004E-03  0.26668E-03  0.21685E-03
  0.21685E-03  0.26668E-03  0.35004E-03  0.45345E-03  0.57090E-03  0.70098E-03
  0.84107E-03  0.98334E-03  0.11170E-02  0.12338E-02  0.13302E-02  0.14060E-02
  0.41365E-03  0.46624E-03  0.50823E-03  0.53680E-03  0.55288E-03  0.56138E-03
  0.56781E-03  0.57412E-03  0.57748E-03  0.57206E-03  0.55092E-03  0.50667E-03
  0.43169E-03  0.31979E-03  0.17044E-03  0.62908E-04  0.25964E-03  0.50104E-03
  0.75202E-03  0.99357E-03  0.12043E-02  0.13638E-02  0.14579E-02  0.14817E-02
  0.14412E-02  0.13560E-02  0.12579E-02  0.11806E-02  0.11436E-02  0.11430E-02
  0.11577E-02  0.11643E-02  0.11473E-02  0.10997E-02  0.10200E-02  0.91262E-03
  0.78744E-03  0.65491E-03  0.52167E-03  0.39128E-03  0.27034E-03  0.18171E-03
  0.18171E-03  0.27034E-03  0.39128E-03  0.52167E-03  0.65491E-03  0.78744E-03
  0.91262E-03  0.10200E-02  0.10997E-02  0.11473E-02  0.11643E-02  0.11577E-02
  0.27571E-03  0.32124E-03  0.38380E-03  0.44752E-03  0.49740E-03  0.52889E-03
  0.54685E-03  0.55677E-03  0.55812E-03  0.54482E-03  0.50915E-03  0.44403E-03
  0.34338E-03  0.20459E-03  0.65518E-04  0.22103E-03  0.46257E-03  0.72033E-03
  0.97396E-03  0.11992E-02  0.13687E-02  0.14579E-02  0.14499E-02  0.13378E-02
  0.11319E-02  0.87105E-03  0.62430E-03  0.46754E-03  0.44320E-03  0.53540E-03
  0.68431E-03  0.82761E-03  0.92993E-03  0.98196E-03  0.98388E-03  0.93685E-03
  0.84620E-03  0.72407E-03  0.58417E-03  0.43561E-03  0.28453E-03  0.15284E-03
  0.15284E-03  0.28453E-03  0.43561E-03  0.58417E-03  0.72407E-03  0.84620E-03
  0.93684E-03  0.98388E-03  0.98196E-03  0.92993E-03  0.82761E-03  0.68431E-03
  0.81362E-04  0.59685E-04  0.10237E-03  0.23374E-03  0.35688E-03  0.44242E-03
  0.49164E-03  0.51626E-03  0.52183E-03  0.50465E-03  0.45761E-03  0.37485E-03
  0.25317E-03  0.10409E-03  0.15821E-03  0.39199E-03  0.65476E-03  0.92227E-03
  0.11705E-02  0.13688E-02  0.14831E-02  0.14817E-02  0.13378E-02  0.10342E-02
  0.58299E-03  0.57162E-04  0.41325E-03  0.67224E-03  0.64537E-03  0.37895E-03
  0.49629E-04  0.35169E-03  0.61032E-03  0.78100E-03  0.88030E-03  0.91209E-03
  0.87404E-03  0.77557E-03  0.63775E-03  0.47843E-03  0.30539E-03  0.13392E-03
  0.13392E-03  0.30538E-03  0.47843E-03  0.63775E-03  0.77557E-03  0.87404E-03
  0.91209E-03  0.88029E-03  0.78100E-03  0.61032E-03  0.35169E-03  0.49629E-04
  0.62938E-03  0.58550E-03  0.39541E-03  0.14548E-03  0.13745E-03  0.30050E-03
  0.40168E-03  0.45401E-03  0.47182E-03  0.45634E-03  0.40259E-03  0.30707E-03
  0.17246E-03  0.92469E-04  0.28681E-03  0.54639E-03  0.82420E-03  0.10960E-02
  0.13327E-02  0.14972E-02  0.15478E-02  0.14412E-02  0.11319E-02  0.58299E-03
  0.19203E-03  0.10705E-02  0.18171E-02  0.21781E-02  0.20354E-02  0.14898E-02
  0.79352E-03  0.18923E-03  0.26825E-03  0.54646E-03  0.73483E-03  0.84856E-03
  0.87446E-03  0.81142E-03  0.68382E-03  0.51925E-03  0.33011E-03  0.12670E-03
  0.12670E-03  0.33011E-03  0.51925E-03  0.68382E-03  0.81142E-03  0.87446E-03
  0.84856E-03  0.73483E-03  0.54646E-03  0.26825E-03  0.18923E-03  0.79352E-03
  0.12889E-02  0.12265E-02  0.93614E-03  0.53941E-03  0.18228E-03  0.14795E-03
  0.29495E-03  0.37971E-03  0.41528E-03  0.40680E-03  0.35135E-03  0.24819E-03
  0.11329E-03  0.15990E-03  0.39571E-03  0.67221E-03  0.95984E-03  0.12317E-02
  0.14540E-02  0.15836E-02  0.15703E-02  0.13560E-02  0.87105E-03  0.57162E-04
  0.10705E-02  0.23180E-02  0.33324E-02  0.37470E-02  0.34130E-02  0.25151E-02
  0.14531E-02  0.58028E-03  0.86078E-04  0.35264E-03  0.59077E-03  0.76960E-03
  0.85932E-03  0.83789E-03  0.72566E-03  0.55866E-03  0.35638E-03  0.12894E-03
  0.12894E-03  0.35638E-03  0.55866E-03  0.72566E-03  0.83789E-03  0.85932E-03
  0.76960E-03  0.59077E-03  0.35264E-03  0.86077E-04  0.58028E-03  0.14531E-02
  0.18138E-02  0.17174E-02  0.13401E-02  0.83944E-03  0.38628E-03  0.12404E-03
  0.21066E-03  0.31312E-03  0.36457E-03  0.36532E-03  0.31142E-03  0.20381E-03
  0.81928E-04  0.21781E-03  0.47253E-03  0.75943E-03  0.10520E-02  0.13213E-02
  0.15300E-02  0.16300E-02  0.15632E-02  0.12579E-02  0.62430E-03  0.41325E-03
  0.18171E-02  0.33324E-02  0.44995E-02  0.48679E-02  0.42910E-02  0.30560E-02
  0.17048E-02  0.68311E-03  0.14323E-03  0.26714E-03  0.49223E-03  0.70466E-03
  0.84621E-03  0.86388E-03  0.76691E-03  0.59719E-03  0.38241E-03  0.13601E-03
  0.13601E-03  0.38241E-03  0.59719E-03  0.76691E-03  0.86387E-03  0.84621E-03
  0.70466E-03  0.49223E-03  0.26714E-03  0.14323E-03  0.68310E-03  0.17048E-02
  0.19718E-02  0.18322E-02  0.14154E-02  0.89720E-03  0.45030E-03  0.18295E-03
  0.18625E-03  0.27607E-03  0.33375E-03  0.34151E-03  0.28956E-03  0.17792E-03
  0.64788E-04  0.24553E-03  0.50977E-03  0.80107E-03  0.10943E-02  0.13598E-02
  0.15585E-02  0.16392E-02  0.15393E-02  0.11806E-02  0.46754E-03  0.67224E-03
  0.21781E-02  0.37470E-02  0.48679E-02  0.50744E-02  0.42675E-02  0.28306E-02
  0.13968E-02  0.44939E-03  0.19072E-03  0.30030E-03  0.46107E-03  0.67697E-03
  0.85215E-03  0.89828E-03  0.81109E-03  0.63610E-03  0.40813E-03  0.14454E-03
  0.14454E-03  0.40813E-03  0.63610E-03  0.81109E-03  0.89828E-03  0.85215E-03
  0.67697E-03  0.46107E-03  0.30030E-03  0.19072E-03  0.44939E-03  0.13968E-02
  0.16900E-02  0.15136E-02  0.11261E-02  0.69871E-03  0.37558E-03  0.21716E-03
  0.21580E-03  0.27880E-03  0.33227E-03  0.34233E-03  0.29109E-03  0.17608E-03
  0.43968E-04  0.23852E-03  0.50458E-03  0.79478E-03  0.10850E-02  0.13461E-02
  0.15392E-02  0.16131E-02  0.15059E-02  0.11436E-02  0.44320E-03  0.64537E-03
  0.20354E-02  0.34130E-02  0.42911E-02  0.42675E-02  0.33264E-02  0.19117E-02
  0.67264E-03  0.27784E-03  0.39612E-03  0.39758E-03  0.48822E-03  0.69634E-03
  0.88806E-03  0.94708E-03  0.86068E-03  0.67696E-03  0.43470E-03  0.15348E-03
  0.15348E-03  0.43470E-03  0.67696E-03  0.86068E-03  0.94708E-03  0.88806E-03
  0.69634E-03  0.48822E-03  0.39758E-03  0.39612E-03  0.27784E-03  0.67264E-03
  0.11152E-02  0.92686E-03  0.63808E-03  0.40628E-03  0.30399E-03  0.26840E-03
  0.27160E-03  0.31444E-03  0.36038E-03  0.36920E-03  0.31800E-03  0.20391E-03
  0.49521E-04  0.20054E-03  0.45978E-03  0.74327E-03  0.10269E-02  0.12825E-02
  0.14738E-02  0.15529E-02  0.14631E-02  0.11430E-02  0.53540E-03  0.37895E-03
  0.14898E-02  0.25151E-02  0.30560E-02  0.28306E-02  0.19117E-02  0.75457E-03
  0.32933E-03  0.63351E-03  0.59530E-03  0.49179E-03  0.55338E-03  0.76327E-03
  0.95742E-03  0.10115E-02  0.91549E-03  0.71970E-03  0.46241E-03  0.16272E-03
  0.16272E-03  0.46241E-03  0.71970E-03  0.91549E-03  0.10115E-02  0.95742E-03
  0.76327E-03  0.55338E-03  0.49179E-03  0.59530E-03  0.63351E-03  0.32933E-03
  0.52524E-03  0.37337E-03  0.28276E-03  0.32270E-03  0.34907E-03  0.33353E-03
  0.33178E-03  0.36767E-03  0.40954E-03  0.41644E-03  0.36626E-03  0.25871E-03
  0.11266E-03  0.14824E-03  0.38463E-03  0.65427E-03  0.92673E-03  0.11750E-02
  0.13668E-02  0.14601E-02  0.14060E-02  0.11577E-02  0.68432E-03  0.49629E-04
  0.79352E-03  0.14531E-02  0.17048E-02  0.13968E-02  0.67264E-03  0.32933E-03
  0.75479E-03  0.82611E-03  0.66389E-03  0.55607E-03  0.65178E-03  0.87591E-03
  0.10567E-02  0.10875E-02  0.97212E-03  0.76158E-03  0.48928E-03  0.17178E-03
  0.17179E-03  0.48928E-03  0.76158E-03  0.97212E-03  0.10875E-02  0.10567E-02
  0.87591E-03  0.65178E-03  0.55607E-03  0.66389E-03  0.82611E-03  0.75479E-03
  0.18360E-03  0.21146E-03  0.32050E-03  0.38942E-03  0.39237E-03  0.37236E-03
  0.38083E-03  0.42355E-03  0.46625E-03  0.47258E-03  0.42605E-03  0.32975E-03
  0.19904E-03  0.12919E-03  0.29715E-03  0.54100E-03  0.79608E-03  0.10340E-02
  0.12269E-02  0.13393E-02  0.13302E-02  0.11643E-02  0.82761E-03  0.35169E-03
  0.18923E-03  0.58028E-03  0.68311E-03  0.44939E-03  0.27784E-03  0.63351E-03
  0.82611E-03  0.76791E-03  0.63449E-03  0.62695E-03  0.79540E-03  0.10274E-02
  0.11742E-02  0.11663E-02  0.10252E-02  0.79860E-03  0.51216E-03  0.17964E-03
  0.17964E-03  0.51216E-03  0.79860E-03  0.10252E-02  0.11663E-02  0.11742E-02
  0.10274E-02  0.79540E-03  0.62695E-03  0.63449E-03  0.76791E-03  0.82611E-03
  0.14566E-03  0.24653E-03  0.33264E-03  0.37000E-03  0.37166E-03  0.37733E-03
  0.41354E-03  0.47026E-03  0.51604E-03  0.52403E-03  0.48524E-03  0.40441E-03
  0.29193E-03  0.18500E-03  0.23006E-03  0.42322E-03  0.65160E-03  0.87470E-03
  0.10664E-02  0.11974E-02  0.12338E-02  0.11473E-02  0.92993E-03  0.61032E-03
  0.26825E-03  0.86078E-04  0.14323E-03  0.19072E-03  0.39612E-03  0.59530E-03
  0.66389E-03  0.63449E-03  0.63571E-03  0.76172E-03  0.98627E-03  0.11961E-02
  0.12884E-02  0.12351E-02  0.10684E-02  0.82699E-03  0.52831E-03  0.18516E-03
  0.18517E-03  0.52831E-03  0.82699E-03  0.10684E-02  0.12351E-02  0.12884E-02
  0.11961E-02  0.98627E-03  0.76172E-03  0.63571E-03  0.63449E-03  0.66389E-03
  0.97080E-04  0.17147E-03  0.23917E-03  0.28269E-03  0.31691E-03  0.36405E-03
  0.42981E-03  0.49861E-03  0.54717E-03  0.55978E-03  0.53337E-03  0.47157E-03
  0.37951E-03  0.27361E-03  0.22551E-03  0.32826E-03  0.51358E-03  0.71432E-03
  0.89926E-03  0.10425E-02  0.11170E-02  0.10997E-02  0.98196E-03  0.78100E-03
  0.54646E-03  0.35264E-03  0.26714E-03  0.30030E-03  0.39758E-03  0.49179E-03
  0.55607E-03  0.62695E-03  0.76172E-03  0.97007E-03  0.11929E-02  0.13448E-02
  0.13734E-02  0.12801E-02  0.10949E-02  0.84256E-03  0.53515E-03  0.18723E-03
  0.18723E-03  0.53515E-03  0.84256E-03  0.10949E-02  0.12801E-02  0.13734E-02
  0.13448E-02  0.11929E-02  0.97007E-03  0.76172E-03  0.62695E-03  0.55607E-03
  0.88064E-04  0.79078E-04  0.13072E-03  0.19368E-03  0.26323E-03  0.34312E-03
  0.42764E-03  0.50252E-03  0.55382E-03  0.57461E-03  0.56410E-03  0.52292E-03
  0.45206E-03  0.35966E-03  0.27901E-03  0.28593E-03  0.40362E-03  0.56938E-03
  0.73837E-03  0.88359E-03  0.98334E-03  0.10200E-02  0.98389E-03  0.88030E-03
  0.73483E-03  0.59077E-03  0.49223E-03  0.46107E-03  0.48822E-03  0.55338E-03
  0.65178E-03  0.79540E-03  0.98627E-03  0.11929E-02  0.13588E-02  0.14361E-02
  0.14095E-02  0.12906E-02  0.10966E-02  0.83934E-03  0.52922E-03  0.18451E-03
  0.18451E-03  0.52922E-03  0.83934E-03  0.10966E-02  0.12906E-02  0.14095E-02
  0.14361E-02  0.13588E-02  0.11929E-02  0.98627E-03  0.79540E-03  0.65178E-03
  0.15052E-03  0.84565E-04  0.65887E-04  0.13074E-03  0.21879E-03  0.31324E-03
  0.40421E-03  0.48122E-03  0.53701E-03  0.56864E-03  0.57462E-03  0.55280E-03
  0.50215E-03  0.42755E-03  0.34657E-03  0.30059E-03  0.34007E-03  0.45411E-03
  0.59531E-03  0.73089E-03  0.84107E-03  0.91262E-03  0.93685E-03  0.91209E-03
  0.84856E-03  0.76960E-03  0.70466E-03  0.67697E-03  0.69634E-03  0.76327E-03
  0.87591E-03  0.10274E-02  0.11961E-02  0.13448E-02  0.14361E-02  0.14509E-02
  0.13899E-02  0.12603E-02  0.10659E-02  0.81054E-03  0.50671E-03  0.17575E-03
  0.17575E-03  0.50671E-03  0.81054E-03  0.10659E-02  0.12603E-02  0.13899E-02
  0.14509E-02  0.14361E-02  0.13448E-02  0.11961E-02  0.10274E-02  0.87591E-03
  0.19399E-03  0.12334E-03  0.61548E-04  0.91799E-04  0.17851E-03  0.27262E-03
  0.36248E-03  0.44054E-03  0.50204E-03  0.54411E-03  0.56373E-03  0.55771E-03
  0.52506E-03  0.46934E-03  0.40057E-03  0.34010E-03  0.32467E-03  0.37840E-03
  0.47959E-03  0.59431E-03  0.70099E-03  0.78744E-03  0.84620E-03  0.87404E-03
  0.87446E-03  0.85932E-03  0.84621E-03  0.85215E-03  0.88806E-03  0.95742E-03
  0.10567E-02  0.11742E-02  0.12884E-02  0.13734E-02  0.14095E-02  0.13899E-02
  0.13154E-02  0.11854E-02  0.99645E-03  0.75172E-03  0.46598E-03  0.16067E-03
  0.16068E-03  0.46598E-03  0.75172E-03  0.99645E-03  0.11854E-02  0.13154E-02
  0.13899E-02  0.14095E-02  0.13734E-02  0.12884E-02  0.11742E-02  0.10567E-02
  0.21122E-03  0.14693E-03  0.83701E-04  0.76857E-04  0.14444E-03  0.22883E-03
  0.31306E-03  0.39004E-03  0.45476E-03  0.50314E-03  0.53143E-03  0.53705E-03
  0.51981E-03  0.48228E-03  0.42996E-03  0.37402E-03  0.33581E-03  0.34143E-03
  0.39619E-03  0.47996E-03  0.57090E-03  0.65491E-03  0.72407E-03  0.77557E-03
  0.81142E-03  0.83789E-03  0.86388E-03  0.89828E-03  0.94708E-03  0.10115E-02
  0.10875E-02  0.11663E-02  0.12351E-02  0.12801E-02  0.12906E-02  0.12603E-02
  0.11854E-02  0.10612E-02  0.88531E-03  0.66298E-03  0.40871E-03  0.14027E-03
  0.14027E-03  0.40871E-03  0.66298E-03  0.88531E-03  0.10612E-02  0.11854E-02
  0.12603E-02  0.12906E-02  0.12801E-02  0.12351E-02  0.11663E-02  0.10875E-02
  0.20390E-03  0.15174E-03  0.10023E-03  0.82525E-04  0.12532E-03  0.19398E-03
  0.26770E-03  0.33831E-03  0.40021E-03  0.44883E-03  0.48080E-03  0.49456E-03
  0.49022E-03  0.46899E-03  0.43343E-03  0.38954E-03  0.34924E-03  0.32942E-03
  0.34323E-03  0.38909E-03  0.45345E-03  0.52167E-03  0.58417E-03  0.63775E-03
  0.68382E-03  0.72566E-03  0.76691E-03  0.81109E-03  0.86068E-03  0.91549E-03
  0.97212E-03  0.10252E-02  0.10684E-02  0.10949E-02  0.10966E-02  0.10659E-02
  0.99645E-03  0.88531E-03  0.73366E-03  0.54775E-03  0.33784E-03  0.11577E-03
  0.11578E-03  0.33784E-03  0.54776E-03  0.73366E-03  0.88531E-03  0.99645E-03
  0.10659E-02  0.10966E-02  0.10949E-02  0.10684E-02  0.10252E-02  0.97212E-03
  0.17125E-03  0.13452E-03  0.10025E-03  0.90424E-04  0.12027E-03  0.17263E-03
  0.23199E-03  0.29078E-03  0.34404E-03  0.38798E-03  0.42011E-03  0.43928E-03
  0.44508E-03  0.43740E-03  0.41704E-03  0.38721E-03  0.35420E-03  0.32646E-03
  0.31316E-03  0.32119E-03  0.35004E-03  0.39128E-03  0.43561E-03  0.47843E-03
  0.51925E-03  0.55866E-03  0.59719E-03  0.63610E-03  0.67696E-03  0.71970E-03
  0.76158E-03  0.79860E-03  0.82699E-03  0.84256E-03  0.83934E-03  0.81054E-03
  0.75172E-03  0.66298E-03  0.54775E-03  0.41028E-03  0.25484E-03  0.87522E-04
  0.87522E-04  0.25484E-03  0.41028E-03  0.54775E-03  0.66298E-03  0.75172E-03
  0.81054E-03  0.83934E-03  0.84256E-03  0.82699E-03  0.79860E-03  0.76158E-03
  0.11787E-03  0.98986E-04  0.86354E-04  0.92622E-04  0.12036E-03  0.16076E-03
  0.20618E-03  0.25196E-03  0.29491E-03  0.33260E-03  0.36320E-03  0.38541E-03
  0.39815E-03  0.40059E-03  0.39263E-03  0.37554E-03  0.35180E-03  0.32449E-03
  0.29752E-03  0.27637E-03  0.26668E-03  0.27034E-03  0.28453E-03  0.30538E-03
  0.33011E-03  0.35638E-03  0.38241E-03  0.40813E-03  0.43470E-03  0.46241E-03
  0.48928E-03  0.51216E-03  0.52831E-03  0.53515E-03  0.52922E-03  0.50671E-03
  0.46598E-03  0.40871E-03  0.33784E-03  0.25484E-03  0.15986E-03  0.55116E-04
  0.55116E-04  0.15986E-03  0.25484E-03  0.33784E-03  0.40871E-03  0.46598E-03
  0.50671E-03  0.52922E-03  0.53515E-03  0.52831E-03  0.51216E-03  0.48928E-03
  0.60155E-04  0.61798E-04  0.71904E-04  0.92199E-04  0.12079E-03  0.15480E-03