       #
       # Generated by the Wannier90 code http://www.wannier.org
       # On 10May2024 at 21:04:43 
       #
CRYSTAL
PRIMVEC
   2.7281430   0.0000000   0.0000000
   0.0000000   2.7281430   0.0000000
   0.0000000   0.0000000   3.7789840
CONVVEC
   2.7281430   0.0000000   0.0000000
   0.0000000   2.7281430   0.0000000
   0.0000000   0.0000000   3.7789840
PRIMCOORD
     2  1
Fe      0.0000000   0.0000000   0.0000000
Pt      1.3640715   1.3640715   1.8894920


BEGIN_BLOCK_DATAGRID_3D
3D_field
BEGIN_DATAGRID_3D_UNKNOWN
    54    54    80
   -2.829185   -2.829185   -3.873459
   5.3552437   0.0000000   0.0000000
   0.0000000   5.3552437   0.0000000
   0.0000000   0.0000000   7.4634934
  0.32360E-02  0.43507E-03  0.31010E-02  0.45533E-02  0.40148E-02  0.21454E-02
  0.20561E-03  0.15296E-02  0.23141E-02  0.25344E-02  0.24398E-02  0.22022E-02
  0.19364E-02  0.17387E-02  0.16823E-02  0.18030E-02  0.20924E-02  0.24952E-02
  0.29180E-02  0.32527E-02  0.33574E-02  0.29552E-02  0.15788E-02  0.12873E-02
  0.54219E-02  0.98366E-02  0.12729E-01  0.12614E-01  0.93999E-02  0.46107E-02
  0.88833E-03  0.22318E-02  0.25027E-02  0.17668E-02  0.97478E-03  0.52732E-03
  0.32842E-03  0.24189E-03  0.35267E-03  0.54184E-03  0.67796E-03  0.74041E-03
  0.74041E-03  0.67796E-03  0.54184E-03  0.35266E-03  0.24188E-03  0.32842E-03
  0.52732E-03  0.97478E-03  0.17668E-02  0.25027E-02  0.22318E-02  0.88834E-03
  0.43507E-03  0.35915E-02  0.64249E-02  0.71918E-02  0.57390E-02  0.30452E-02
  0.43582E-03  0.13827E-02  0.21905E-02  0.23541E-02  0.21990E-02  0.19165E-02
  0.16145E-02  0.13846E-02  0.13048E-02  0.14133E-02  0.16970E-02  0.20955E-02
  0.25198E-02  0.28722E-02  0.30173E-02  0.26756E-02  0.13777E-02  0.13910E-02
  0.53706E-02  0.95324E-02  0.12066E-01  0.11553E-01  0.80401E-02  0.32164E-02
  0.13136E-02  0.30235E-02  0.29134E-02  0.19104E-02  0.10292E-02  0.62602E-03
  0.50497E-03  0.40582E-03  0.28818E-03  0.25906E-03  0.29894E-03  0.32477E-03
  0.32477E-03  0.29894E-03  0.25905E-03  0.28817E-03  0.40581E-03  0.50497E-03
  0.62601E-03  0.10292E-02  0.19104E-02  0.29134E-02  0.30235E-02  0.13136E-02
  0.31010E-02  0.64249E-02  0.85935E-02  0.85098E-02  0.63166E-02  0.31741E-02
  0.41045E-03  0.13325E-02  0.20113E-02  0.20550E-02  0.18173E-02  0.14816E-02
  0.11403E-02  0.87761E-03  0.77080E-03  0.85861E-03  0.11260E-02  0.15132E-02
  0.19397E-02  0.23208E-02  0.25404E-02  0.23591E-02  0.13726E-02  0.85989E-03
  0.40784E-02  0.73976E-02  0.92473E-02  0.84657E-02  0.52326E-02  0.12853E-02
  0.23685E-02  0.34878E-02  0.29567E-02  0.18291E-02  0.10102E-02  0.72575E-03
  0.70505E-03  0.67132E-03  0.56285E-03  0.45296E-03  0.39558E-03  0.37933E-03
  0.37933E-03  0.39557E-03  0.45296E-03  0.56285E-03  0.67132E-03  0.70505E-03
  0.72575E-03  0.10102E-02  0.18291E-02  0.29567E-02  0.34878E-02  0.23685E-02
  0.45533E-02  0.71918E-02  0.85098E-02  0.77812E-02  0.53612E-02  0.23851E-02
  0.97168E-04  0.13669E-02  0.17702E-02  0.16474E-02  0.13171E-02  0.92822E-03
  0.55768E-03  0.29375E-03  0.19886E-03  0.23283E-03  0.44273E-03  0.80332E-03
  0.12310E-02  0.16484E-02  0.19611E-02  0.19915E-02  0.14426E-02  0.16772E-03
  0.21588E-02  0.43674E-02  0.54739E-02  0.46706E-02  0.22318E-02  0.11681E-02
  0.29750E-02  0.33547E-02  0.25816E-02  0.15722E-02  0.98288E-03  0.86841E-03
  0.93437E-03  0.94406E-03  0.86281E-03  0.76892E-03  0.71785E-03  0.70413E-03
  0.70413E-03  0.71785E-03  0.76892E-03  0.86281E-03  0.94406E-03  0.93437E-03
  0.86841E-03  0.98288E-03  0.15722E-02  0.25816E-02  0.33547E-02  0.29751E-02
  0.40148E-02  0.57390E-02  0.63166E-02  0.53612E-02  0.32944E-02  0.10373E-02
  0.61758E-03  0.13736E-02  0.14337E-02  0.11369E-02  0.72320E-03  0.32471E-03
  0.29279E-03  0.55486E-03  0.69354E-03  0.64713E-03  0.43839E-03  0.21928E-03
  0.48422E-03  0.92220E-03  0.13200E-02  0.15475E-02  0.14187E-02  0.76015E-03
  0.40833E-03  0.15895E-02  0.21181E-02  0.15365E-02  0.66288E-03  0.19684E-02
  0.28511E-02  0.27279E-02  0.20001E-02  0.13193E-02  0.10399E-02  0.10801E-02
  0.11849E-02  0.11947E-02  0.11161E-02  0.10287E-02  0.97965E-03  0.96441E-03
  0.96441E-03  0.97965E-03  0.10287E-02  0.11161E-02  0.11947E-02  0.11849E-02
  0.10801E-02  0.10399E-02  0.13193E-02  0.20001E-02  0.27279E-02  0.28511E-02
  0.21454E-02  0.30452E-02  0.31741E-02  0.23851E-02  0.10373E-02  0.27130E-03
  0.10522E-02  0.12313E-02  0.98370E-03  0.54852E-03  0.19927E-03  0.54276E-03
  0.97858E-03  0.13072E-02  0.14618E-02  0.14213E-02  0.12035E-02  0.84775E-03
  0.42240E-03  0.28405E-03  0.67608E-03  0.10348E-02  0.12068E-02  0.10934E-02
  0.70452E-03  0.28965E-03  0.28974E-03  0.61995E-03  0.13514E-02  0.20544E-02
  0.22912E-02  0.20168E-02  0.15531E-02  0.12566E-02  0.12327E-02  0.13505E-02
  0.14335E-02  0.14084E-02  0.13150E-02  0.12223E-02  0.11653E-02  0.11421E-02
  0.11421E-02  0.11653E-02  0.12223E-02  0.13150E-02  0.14084E-02  0.14335E-02
  0.13505E-02  0.12327E-02  0.12566E-02  0.15531E-02  0.20168E-02  0.22912E-02
  0.20561E-03  0.43582E-03  0.41045E-03  0.97170E-04  0.61758E-03  0.10522E-02
  0.11436E-02  0.89578E-03  0.43925E-03  0.19236E-03  0.72506E-03  0.12633E-02
  0.17261E-02  0.20529E-02  0.21972E-02  0.21463E-02  0.19183E-02  0.15456E-02
  0.10717E-02  0.56422E-03  0.23451E-03  0.51821E-03  0.84382E-03  0.10409E-02
  0.10877E-02  0.10530E-02  0.10840E-02  0.12828E-02  0.15850E-02  0.18004E-02
  0.17930E-02  0.16174E-02  0.14565E-02  0.14368E-02  0.15353E-02  0.16388E-02
  0.16586E-02  0.15891E-02  0.14787E-02  0.13765E-02  0.13063E-02  0.12721E-02
  0.12721E-02  0.13063E-02  0.13765E-02  0.14787E-02  0.15891E-02  0.16586E-02
  0.16388E-02  0.15354E-02  0.14368E-02  0.14565E-02  0.16174E-02  0.17930E-02
  0.15296E-02  0.13827E-02  0.13325E-02  0.13669E-02  0.13736E-02  0.12313E-02
  0.89578E-03  0.40394E-03  0.20035E-03  0.81624E-03  0.14261E-02  0.19767E-02
  0.24207E-02  0.27144E-02  0.28264E-02  0.27490E-02  0.25005E-02  0.21132E-02
  0.16272E-02  0.10947E-02  0.58351E-03  0.24883E-03  0.46109E-03  0.78154E-03
  0.10317E-02  0.11986E-02  0.13208E-02  0.14442E-02  0.15649E-02  0.16358E-02
  0.16399E-02  0.16286E-02  0.16692E-02  0.17684E-02  0.18673E-02  0.19019E-02
  0.18555E-02  0.17539E-02  0.16328E-02  0.15198E-02  0.14345E-02  0.13892E-02
  0.13892E-02  0.14345E-02  0.15198E-02  0.16328E-02  0.17539E-02  0.18555E-02
  0.19019E-02  0.18673E-02  0.17684E-02  0.16692E-02  0.16286E-02  0.16399E-02
  0.23141E-02  0.21905E-02  0.20113E-02  0.17702E-02  0.14337E-02  0.98371E-03
  0.43925E-03  0.20035E-03  0.84066E-03  0.14980E-02  0.21123E-02  0.26308E-02
  0.30171E-02  0.32491E-02  0.33099E-02  0.31940E-02  0.29195E-02  0.25213E-02
  0.20380E-02  0.15108E-02  0.98792E-03  0.52281E-03  0.27950E-03  0.51291E-03
  0.82879E-03  0.10893E-02  0.12854E-02  0.14396E-02  0.15689E-02  0.16759E-02
  0.17711E-02  0.18784E-02  0.20037E-02  0.21129E-02  0.21597E-02  0.21295E-02
  0.20438E-02  0.19290E-02  0.18011E-02  0.16763E-02  0.15774E-02  0.15239E-02
  0.15239E-02  0.15774E-02  0.16763E-02  0.18011E-02  0.19290E-02  0.20438E-02
  0.21295E-02  0.21597E-02  0.21129E-02  0.20037E-02  0.18784E-02  0.17711E-02
  0.25344E-02  0.23541E-02  0.20550E-02  0.16474E-02  0.11369E-02  0.54852E-03
  0.19236E-03  0.81624E-03  0.14980E-02  0.21580E-02  0.27371E-02  0.31853E-02
  0.34849E-02  0.36359E-02  0.36326E-02  0.34704E-02  0.31675E-02  0.27622E-02
  0.22912E-02  0.17834E-02  0.12713E-02  0.79268E-03  0.40823E-03  0.36229E-03
  0.64231E-03  0.93875E-03  0.11941E-02  0.14156E-02  0.16172E-02  0.18041E-02
  0.19811E-02  0.21518E-02  0.23011E-02  0.23942E-02  0.24078E-02  0.23543E-02
  0.22630E-02  0.21491E-02  0.20169E-02  0.18834E-02  0.17784E-02  0.17233E-02
  0.17233E-02  0.17784E-02  0.18834E-02  0.20169E-02  0.21491E-02  0.22630E-02
  0.23543E-02  0.24078E-02  0.23942E-02  0.23011E-02  0.21518E-02  0.19811E-02
  0.24398E-02  0.21990E-02  0.18173E-02  0.13171E-02  0.72320E-03  0.19927E-03
  0.72506E-03  0.14261E-02  0.21123E-02  0.27371E-02  0.32448E-02  0.35988E-02
  0.38000E-02  0.38631E-02  0.37889E-02  0.35745E-02  0.32414E-02  0.28314E-02
  0.23779E-02  0.18982E-02  0.14114E-02  0.94821E-03  0.55099E-03  0.35149E-03
  0.52032E-03  0.81030E-03  0.10988E-02  0.13758E-02  0.16445E-02  0.19007E-02
  0.21384E-02  0.23520E-02  0.25248E-02  0.26301E-02  0.26571E-02  0.26230E-02
  0.25514E-02  0.24497E-02  0.23221E-02  0.21926E-02  0.20952E-02  0.20471E-02
  0.20471E-02  0.20952E-02  0.21926E-02  0.23221E-02  0.24497E-02  0.25514E-02
  0.26230E-02  0.26571E-02  0.26301E-02  0.25248E-02  0.23520E-02  0.21384E-02
  0.22022E-02  0.19165E-02  0.14816E-02  0.92822E-03  0.32472E-03  0.54276E-03
  0.12633E-02  0.19767E-02  0.26308E-02  0.31853E-02  0.35988E-02  0.38516E-02
  0.39558E-02  0.39315E-02  0.37826E-02  0.35121E-02  0.31481E-02  0.27352E-02
  0.23023E-02  0.18564E-02  0.14072E-02  0.98104E-03  0.61367E-03  0.38700E-03
  0.46156E-03  0.71718E-03  0.10104E-02  0.13166E-02  0.16309E-02  0.19410E-02
  0.22330E-02  0.24966E-02  0.27160E-02  0.28691E-02  0.29457E-02  0.29582E-02
  0.29243E-02  0.28506E-02  0.27463E-02  0.26396E-02  0.25635E-02  0.25289E-02
  0.25289E-02  0.25635E-02  0.26396E-02  0.27463E-02  0.28506E-02  0.29243E-02
  0.29582E-02  0.29457E-02  0.28691E-02  0.27160E-02  0.24966E-02  0.22330E-02
  0.19364E-02  0.16145E-02  0.11403E-02  0.55768E-03  0.29280E-03  0.97858E-03
  0.17261E-02  0.24207E-02  0.30171E-02  0.34849E-02  0.38000E-02  0.39558E-02
  0.39685E-02  0.38583E-02  0.36338E-02  0.33078E-02  0.29162E-02  0.25037E-02
  0.20925E-02  0.16822E-02  0.12783E-02  0.90500E-03  0.59344E-03  0.40177E-03
  0.44098E-03  0.65458E-03  0.93035E-03  0.12423E-02  0.15840E-02  0.19390E-02
  0.22869E-02  0.26124E-02  0.28987E-02  0.31230E-02  0.32716E-02  0.33507E-02
  0.33748E-02  0.33521E-02  0.32938E-02  0.32265E-02  0.31786E-02  0.31583E-02
  0.31583E-02  0.31786E-02  0.32265E-02  0.32938E-02  0.33521E-02  0.33748E-02
  0.33507E-02  0.32716E-02  0.31230E-02  0.28987E-02  0.26124E-02  0.22869E-02
  0.17387E-02  0.13846E-02  0.87761E-03  0.29375E-03  0.55486E-03  0.13072E-02
  0.20529E-02  0.27144E-02  0.32491E-02  0.36359E-02  0.38631E-02  0.39315E-02
  0.38583E-02  0.36658E-02  0.33717E-02  0.29992E-02  0.25886E-02  0.21802E-02
  0.17899E-02  0.14150E-02  0.10625E-02  0.75653E-03  0.52271E-03  0.39597E-03
  0.42879E-03  0.59439E-03  0.83377E-03  0.11328E-02  0.14879E-02  0.18807E-02
  0.22851E-02  0.26811E-02  0.30494E-02  0.33651E-02  0.36087E-02  0.37797E-02
  0.38886E-02  0.39430E-02  0.39512E-02  0.39338E-02  0.39156E-02  0.39075E-02
  0.39075E-02  0.39156E-02  0.39338E-02  0.39512E-02  0.39430E-02  0.38886E-02
  0.37797E-02  0.36087E-02  0.33651E-02  0.30494E-02  0.26811E-02  0.22851E-02
  0.16823E-02  0.13048E-02  0.77080E-03  0.19886E-03  0.69354E-03  0.14618E-02
  0.21972E-02  0.28264E-02  0.33099E-02  0.36326E-02  0.37889E-02  0.37826E-02
  0.36338E-02  0.33717E-02  0.30242E-02  0.26216E-02  0.22026E-02  0.18017E-02
  0.14330E-02  0.10985E-02  0.81017E-03  0.59056E-03  0.45180E-03  0.39106E-03
  0.41008E-03  0.51191E-03  0.69455E-03  0.96377E-03  0.13200E-02  0.17427E-02
  0.22018E-02  0.26741E-02  0.31387E-02  0.35669E-02  0.39315E-02  0.42226E-02
  0.44436E-02  0.45979E-02  0.46889E-02  0.47309E-02  0.47465E-02  0.47519E-02
  0.47519E-02  0.47465E-02  0.47309E-02  0.46889E-02  0.45979E-02  0.44436E-02
  0.42226E-02  0.39315E-02  0.35669E-02  0.31387E-02  0.26741E-02  0.22018E-02
  0.18030E-02  0.14133E-02  0.85861E-03  0.23284E-03  0.64713E-03  0.14213E-02
  0.21463E-02  0.27490E-02  0.31940E-02  0.34704E-02  0.35745E-02  0.35121E-02
  0.33078E-02  0.29992E-02  0.26216E-02  0.22064E-02  0.17882E-02  0.13999E-02
  0.10614E-02  0.78307E-03  0.57934E-03  0.46153E-03  0.41392E-03  0.40105E-03
  0.40297E-03  0.43212E-03  0.53082E-03  0.74540E-03  0.10868E-02  0.15292E-02
  0.20384E-02  0.25890E-02  0.31575E-02  0.37104E-02  0.42116E-02  0.46403E-02
  0.49909E-02  0.52605E-02  0.54476E-02  0.55616E-02  0.56226E-02  0.56489E-02
  0.56489E-02  0.56226E-02  0.55616E-02  0.54476E-02  0.52605E-02  0.49909E-02
  0.46403E-02  0.42116E-02  0.37104E-02  0.31575E-02  0.25890E-02  0.20384E-02
  0.20924E-02  0.16970E-02  0.11260E-02  0.44273E-03  0.43839E-03  0.12035E-02
  0.19183E-02  0.25005E-02  0.29195E-02  0.31675E-02  0.32414E-02  0.31481E-02
  0.29162E-02  0.25886E-02  0.22026E-02  0.17882E-02  0.13798E-02  0.10161E-02
  0.72680E-03  0.52748E-03  0.42243E-03  0.39584E-03  0.41270E-03  0.43836E-03
  0.44686E-03  0.42935E-03  0.41652E-03  0.51352E-03  0.80213E-03  0.12475E-02
  0.17986E-02  0.24231E-02  0.30921E-02  0.37659E-02  0.44015E-02  0.49688E-02
  0.54528E-02  0.58437E-02  0.61358E-02  0.63346E-02  0.64557E-02  0.65131E-02
  0.65131E-02  0.64557E-02  0.63346E-02  0.61358E-02  0.58437E-02  0.54528E-02
  0.49688E-02  0.44015E-02  0.37659E-02  0.30921E-02  0.24231E-02  0.17986E-02
  0.24952E-02  0.20955E-02  0.15132E-02  0.80332E-03  0.21928E-03  0.84775E-03
  0.15456E-02  0.21132E-02  0.25213E-02  0.27622E-02  0.28314E-02  0.27352E-02
  0.25037E-02  0.21802E-02  0.18017E-02  0.13999E-02  0.10161E-02  0.69891E-03
  0.48424E-03  0.37828E-03  0.35635E-03  0.38574E-03  0.44673E-03  0.51741E-03
  0.56524E-03  0.55963E-03  0.48489E-03  0.38310E-03  0.47836E-03  0.87928E-03
  0.14561E-02  0.21431E-02  0.28996E-02  0.36800E-02  0.44374E-02  0.51349E-02
  0.57483E-02  0.62597E-02  0.66593E-02  0.69496E-02  0.71400E-02  0.72356E-02
  0.72356E-02  0.71400E-02  0.69496E-02  0.66593E-02  0.62597E-02  0.57483E-02
  0.51349E-02  0.44374E-02  0.36800E-02  0.28996E-02  0.21431E-02  0.14561E-02
  0.29180E-02  0.25198E-02  0.19397E-02  0.12310E-02  0.48422E-03  0.42240E-03
  0.10717E-02  0.16272E-02  0.20380E-02  0.22912E-02  0.23779E-02  0.23023E-02
  0.20925E-02  0.17899E-02  0.14330E-02  0.10614E-02  0.72680E-03  0.48424E-03
  0.36059E-03  0.33153E-03  0.35544E-03  0.42032E-03  0.52873E-03  0.66054E-03
  0.77095E-03  0.81505E-03  0.76110E-03  0.59447E-03  0.36350E-03  0.46207E-03
  0.10056E-02  0.17238E-02  0.25402E-02  0.34033E-02  0.42640E-02  0.50796E-02
  0.58146E-02  0.64415E-02  0.69455E-02  0.73263E-02  0.75868E-02  0.77216E-02
  0.77216E-02  0.75868E-02  0.73263E-02  0.69455E-02  0.64415E-02  0.58146E-02
  0.50796E-02  0.42640E-02  0.34033E-02  0.25402E-02  0.17238E-02  0.10056E-02
  0.32527E-02  0.28722E-02  0.23208E-02  0.16484E-02  0.92220E-03  0.28405E-03
  0.56422E-03  0.10947E-02  0.15108E-02  0.17834E-02  0.18982E-02  0.18564E-02
  0.16822E-02  0.14150E-02  0.10985E-02  0.78307E-03  0.52748E-03  0.37828E-03
  0.33153E-03  0.34461E-03  0.39896E-03  0.50839E-03  0.67802E-03  0.86941E-03
  0.10212E-02  0.10887E-02  0.10530E-02  0.90579E-03  0.64222E-03  0.33103E-03
  0.54551E-03  0.12138E-02  0.20306E-02  0.29283E-02  0.38557E-02  0.47628E-02
  0.56018E-02  0.63331E-02  0.69348E-02  0.74005E-02  0.77257E-02  0.78960E-02
  0.78960E-02  0.77257E-02  0.74005E-02  0.69348E-02  0.63331E-02  0.56018E-02
  0.47628E-02  0.38557E-02  0.29283E-02  0.20306E-02  0.12138E-02  0.54551E-03
  0.33574E-02  0.30173E-02  0.25404E-02  0.19611E-02  0.13200E-02  0.67608E-03
  0.23451E-03  0.58351E-03  0.98792E-03  0.12713E-02  0.14114E-02  0.14072E-02
  0.12783E-02  0.10625E-02  0.81017E-03  0.57934E-03  0.42242E-03  0.35634E-03
  0.35543E-03  0.39896E-03  0.49684E-03  0.66412E-03  0.87447E-03  0.10605E-02
  0.11670E-02  0.11871E-02  0.11422E-02  0.10379E-02  0.84926E-03  0.55387E-03
  0.29739E-03  0.70673E-03  0.14350E-02  0.22915E-02  0.32195E-02  0.41635E-02
  0.50661E-02  0.58776E-02  0.65642E-02  0.71064E-02  0.74876E-02  0.76867E-02
  0.76867E-02  0.74876E-02  0.71064E-02  0.65642E-02  0.58776E-02  0.50661E-02
  0.41635E-02  0.32195E-02  0.22915E-02  0.14350E-02  0.70673E-03  0.29739E-03
  0.29552E-02  0.26756E-02  0.23591E-02  0.19915E-02  0.15475E-02  0.10348E-02
  0.51821E-03  0.24883E-03  0.52281E-03  0.79268E-03  0.94821E-03  0.98104E-03
  0.90500E-03  0.75653E-03  0.59056E-03  0.46153E-03  0.39583E-03  0.38574E-03
  0.42032E-03  0.50839E-03  0.66412E-03  0.86235E-03  0.10276E-02  0.10955E-02
  0.10780E-02  0.10505E-02  0.10668E-02  0.10959E-02  0.10485E-02  0.85592E-03
  0.52336E-03  0.31106E-03  0.79807E-03  0.15357E-02  0.23837E-02  0.32871E-02
  0.41899E-02  0.50390E-02  0.57871E-02  0.63920E-02  0.68179E-02  0.70381E-02
  0.70381E-02  0.68179E-02  0.63920E-02  0.57871E-02  0.50390E-02  0.41899E-02
  0.32871E-02  0.23837E-02  0.15357E-02  0.79807E-03  0.31106E-03  0.52336E-03
  0.15788E-02  0.13777E-02  0.13726E-02  0.14426E-02  0.14187E-02  0.12068E-02
  0.84382E-03  0.46109E-03  0.27950E-03  0.40823E-03  0.55100E-03  0.61367E-03
  0.59344E-03  0.52271E-03  0.45180E-03  0.41392E-03  0.41269E-03  0.44673E-03
  0.52873E-03  0.67801E-03  0.87447E-03  0.10276E-02  0.10444E-02  0.94423E-03
  0.88106E-03  0.10191E-02  0.13509E-02  0.16726E-02  0.17635E-02  0.15545E-02
  0.11363E-02  0.64632E-03  0.31129E-03  0.71145E-03  0.13938E-02  0.21752E-02
  0.30054E-02  0.38365E-02  0.46102E-02  0.52567E-02  0.57146E-02  0.59490E-02
  0.59490E-02  0.57146E-02  0.52567E-02  0.46102E-02  0.38365E-02  0.30054E-02
  0.21752E-02  0.13938E-02  0.71145E-03  0.31129E-03  0.64632E-03  0.11363E-02
  0.12873E-02  0.13910E-02  0.85989E-03  0.16772E-03  0.76015E-03  0.10934E-02
  0.10409E-02  0.78154E-03  0.51291E-03  0.36229E-03  0.35150E-03  0.38700E-03
  0.40178E-03  0.39597E-03  0.39106E-03  0.40105E-03  0.43835E-03  0.51741E-03
  0.66053E-03  0.86941E-03  0.10605E-02  0.10955E-02  0.94422E-03  0.80791E-03
  0.10381E-02  0.17890E-02  0.27554E-02  0.34060E-02  0.33898E-02  0.27843E-02
  0.19648E-02  0.12642E-02  0.77120E-03  0.42125E-03  0.42188E-03  0.91916E-03
  0.15936E-02  0.23462E-02  0.31019E-02  0.37637E-02  0.42412E-02  0.44856E-02
  0.44856E-02  0.42412E-02  0.37637E-02  0.31019E-02  0.23462E-02  0.15936E-02
  0.91916E-03  0.42188E-03  0.42125E-03  0.77120E-03  0.12642E-02  0.19648E-02
  0.54219E-02  0.53706E-02  0.40784E-02  0.21588E-02  0.40833E-03  0.70452E-03
  0.10877E-02  0.10317E-02  0.82879E-03  0.64231E-03  0.52032E-03  0.46156E-03
  0.44099E-03  0.42879E-03  0.41008E-03  0.40297E-03  0.44686E-03  0.56523E-03
  0.77095E-03  0.10212E-02  0.11670E-02  0.10780E-02  0.88106E-03  0.10381E-02
  0.20362E-02  0.37464E-02  0.53795E-02  0.60097E-02  0.52919E-02  0.37204E-02
  0.21835E-02  0.12729E-02  0.99784E-03  0.99714E-03  0.91356E-03  0.62792E-03
  0.31249E-03  0.69630E-03  0.13714E-02  0.20189E-02  0.25054E-02  0.27587E-02
  0.27587E-02  0.25054E-02  0.20189E-02  0.13714E-02  0.69630E-03  0.31249E-03
  0.62792E-03  0.91356E-03  0.99714E-03  0.99784E-03  0.12729E-02  0.21835E-02
  0.98366E-02  0.95324E-02  0.73976E-02  0.43674E-02  0.15895E-02  0.28965E-03
  0.10530E-02  0.11986E-02  0.10893E-02  0.93875E-03  0.81030E-03  0.71718E-03
  0.65458E-03  0.59439E-03  0.51191E-03  0.43212E-03  0.42934E-03  0.55963E-03
  0.81505E-03  0.10887E-02  0.11870E-02  0.10505E-02  0.10191E-02  0.17890E-02
  0.37464E-02  0.63021E-02  0.80743E-02  0.78496E-02  0.56021E-02  0.26023E-02
  0.66230E-03  0.62057E-03  0.24303E-03  0.10915E-02  0.17508E-02  0.19042E-02
  0.16548E-02  0.11565E-02  0.54468E-03  0.24341E-03  0.65865E-03  0.91501E-03
  0.91501E-03  0.65865E-03  0.24342E-03  0.54469E-03  0.11565E-02  0.16548E-02
  0.19042E-02  0.17508E-02  0.10915E-02  0.24303E-03  0.62057E-03  0.66230E-03
  0.12729E-01  0.12066E-01  0.92473E-02  0.54739E-02  0.21181E-02  0.28974E-03
  0.10840E-02  0.13208E-02  0.12854E-02  0.11941E-02  0.10988E-02  0.10104E-02
  0.93035E-03  0.83377E-03  0.69456E-03  0.53082E-03  0.41652E-03  0.48489E-03
  0.76110E-03  0.10530E-02  0.11422E-02  0.10668E-02  0.13509E-02  0.27554E-02
  0.53795E-02  0.80743E-02  0.89541E-02  0.68321E-02  0.24746E-02  0.26075E-02
  0.50004E-02  0.46061E-02  0.22865E-02  0.44043E-03  0.22568E-02  0.30949E-02
  0.31885E-02  0.28603E-02  0.23182E-02  0.17219E-02  0.12296E-02  0.95964E-03
  0.95964E-03  0.12296E-02  0.17219E-02  0.23182E-02  0.28603E-02  0.31885E-02
  0.30949E-02  0.22568E-02  0.44043E-03  0.22865E-02  0.46061E-02  0.50004E-02
  0.12614E-01  0.11552E-01  0.84657E-02  0.46706E-02  0.15365E-02  0.61995E-03
  0.12828E-02  0.14442E-02  0.14396E-02  0.14156E-02  0.13758E-02  0.13166E-02
  0.12423E-02  0.11328E-02  0.96377E-03  0.74540E-03  0.51352E-03  0.38311E-03
  0.59447E-03  0.90578E-03  0.10379E-02  0.10959E-02  0.16726E-02  0.34060E-02
  0.60097E-02  0.78496E-02  0.68321E-02  0.23064E-02  0.49783E-02  0.10664E-01
  0.12620E-01  0.10360E-01  0.56400E-02  0.89395E-03  0.24670E-02  0.40937E-02
  0.45567E-02  0.43933E-02  0.39235E-02  0.33460E-02  0.28399E-02  0.25502E-02
  0.25502E-02  0.28399E-02  0.33460E-02  0.39235E-02  0.43933E-02  0.45567E-02
  0.40937E-02  0.24670E-02  0.89395E-03  0.56400E-02  0.10360E-01  0.12620E-01
  0.93999E-02  0.80401E-02  0.52325E-02  0.22318E-02  0.66288E-03  0.13514E-02
  0.15850E-02  0.15649E-02  0.15689E-02  0.16172E-02  0.16445E-02  0.16309E-02
  0.15840E-02  0.14879E-02  0.13200E-02  0.10868E-02  0.80213E-03  0.47836E-03
  0.36350E-03  0.64222E-03  0.84925E-03  0.10485E-02  0.17635E-02  0.33898E-02
  0.52919E-02  0.56021E-02  0.24746E-02  0.49783E-02  0.13334E-01  0.19276E-01
  0.20000E-01  0.15578E-01  0.85342E-02  0.18880E-02  0.26649E-02  0.49300E-02
  0.56744E-02  0.56178E-02  0.51778E-02  0.45932E-02  0.40649E-02  0.37572E-02
  0.37572E-02  0.40649E-02  0.45932E-02  0.51778E-02  0.56178E-02  0.56744E-02
  0.49300E-02  0.26649E-02  0.18880E-02  0.85342E-02  0.15578E-01  0.20000E-01
  0.46107E-02  0.32164E-02  0.12853E-02  0.11681E-02  0.19684E-02  0.20544E-02
  0.18004E-02  0.16358E-02  0.16759E-02  0.18041E-02  0.19007E-02  0.19410E-02
  0.19390E-02  0.18807E-02  0.17427E-02  0.15293E-02  0.12475E-02  0.87929E-03
  0.46208E-03  0.33103E-03  0.55387E-03  0.85592E-03  0.15545E-02  0.27843E-02
  0.37204E-02  0.26023E-02  0.26075E-02  0.10664E-01  0.19276E-01  0.24439E-01
  0.23726E-01  0.17723E-01  0.93673E-02  0.18436E-02  0.31812E-02  0.56692E-02
  0.64898E-02  0.64347E-02  0.59608E-02  0.53323E-02  0.47672E-02  0.44393E-02
  0.44393E-02  0.47672E-02  0.53323E-02  0.59608E-02  0.64347E-02  0.64898E-02
  0.56692E-02  0.31812E-02  0.18436E-02  0.93673E-02  0.17723E-01  0.23726E-01
  0.88834E-03  0.13136E-02  0.23685E-02  0.29751E-02  0.28511E-02  0.22912E-02
  0.17930E-02  0.16399E-02  0.17711E-02  0.19811E-02  0.21384E-02  0.22330E-02
  0.22869E-02  0.22851E-02  0.22018E-02  0.20384E-02  0.17986E-02  0.14561E-02
  0.10056E-02  0.54552E-03  0.29739E-03  0.52336E-03  0.11363E-02  0.19648E-02
  0.21835E-02  0.66230E-03  0.50004E-02  0.12620E-01  0.20000E-01  0.23726E-01
  0.21960E-01  0.15597E-01  0.74751E-02  0.46021E-03  0.41166E-02  0.63064E-02
  0.69498E-02  0.67698E-02  0.61902E-02  0.54782E-02  0.48604E-02  0.45090E-02
  0.45090E-02  0.48604E-02  0.54782E-02  0.61902E-02  0.67698E-02  0.69498E-02
  0.63064E-02  0.41166E-02  0.46021E-03  0.74751E-02  0.15597E-01  0.21960E-01
  0.22318E-02  0.30235E-02  0.34878E-02  0.33547E-02  0.27279E-02  0.20168E-02
  0.16174E-02  0.16286E-02  0.18784E-02  0.21518E-02  0.23520E-02  0.24966E-02
  0.26124E-02  0.26811E-02  0.26741E-02  0.25890E-02  0.24231E-02  0.21431E-02
  0.17238E-02  0.12138E-02  0.70673E-03  0.31106E-03  0.64632E-03  0.12642E-02
  0.12729E-02  0.62057E-03  0.46061E-02  0.10360E-01  0.15578E-01  0.17723E-01
  0.15597E-01  0.10117E-01  0.35804E-02  0.18637E-02  0.52347E-02  0.67273E-02
  0.69891E-02  0.65723E-02  0.58209E-02  0.49890E-02  0.43019E-02  0.39215E-02
  0.39215E-02  0.43019E-02  0.49890E-02  0.58209E-02  0.65723E-02  0.69891E-02
  0.67273E-02  0.52347E-02  0.18637E-02  0.35804E-02  0.10117E-01  0.15597E-01
  0.25027E-02  0.29134E-02  0.29567E-02  0.25816E-02  0.20001E-02  0.15531E-02
  0.14565E-02  0.16692E-02  0.20037E-02  0.23011E-02  0.25248E-02  0.27160E-02
  0.28987E-02  0.30494E-02  0.31387E-02  0.31575E-02  0.30921E-02  0.28996E-02
  0.25402E-02  0.20306E-02  0.14350E-02  0.79807E-03  0.31129E-03  0.77120E-03
  0.99784E-03  0.24303E-03  0.22865E-02  0.56400E-02  0.85342E-02  0.93673E-02
  0.74751E-02  0.35804E-02  0.77309E-03  0.41858E-02  0.61317E-02  0.67784E-02
  0.65567E-02  0.58289E-02  0.48571E-02  0.38781E-02  0.31073E-02  0.26908E-02
  0.26908E-02  0.31073E-02  0.38781E-02  0.48571E-02  0.58289E-02  0.65567E-02
  0.67784E-02  0.61317E-02  0.41858E-02  0.77309E-03  0.35804E-02  0.74751E-02
  0.17668E-02  0.19104E-02  0.18291E-02  0.15722E-02  0.13193E-02  0.12566E-02
  0.14368E-02  0.17684E-02  0.21129E-02  0.23942E-02  0.26301E-02  0.28691E-02
  0.31230E-02  0.33651E-02  0.35669E-02  0.37104E-02  0.37659E-02  0.36800E-02
  0.34033E-02  0.29283E-02  0.22915E-02  0.15357E-02  0.71145E-03  0.42125E-03
  0.99714E-03  0.10915E-02  0.44043E-03  0.89395E-03  0.18880E-02  0.18436E-02
  0.46021E-03  0.18637E-02  0.41858E-02  0.58164E-02  0.65011E-02  0.63624E-02
  0.56447E-02  0.45731E-02  0.33590E-02  0.22241E-02  0.13672E-02  0.91571E-03
  0.91571E-03  0.13672E-02  0.22241E-02  0.33590E-02  0.45731E-02  0.56447E-02
  0.63624E-02  0.65011E-02  0.58164E-02  0.41858E-02  0.18637E-02  0.46021E-03
  0.97478E-03  0.10292E-02  0.10102E-02  0.98288E-03  0.10399E-02  0.12327E-02
  0.15353E-02  0.18673E-02  0.21597E-02  0.24078E-02  0.26571E-02  0.29457E-02
  0.32716E-02  0.36087E-02  0.39315E-02  0.42116E-02  0.44015E-02  0.44374E-02
  0.42640E-02  0.38557E-02  0.32195E-02  0.23837E-02  0.13938E-02  0.42188E-03
  0.91356E-03  0.17508E-02  0.22568E-02  0.24670E-02  0.26649E-02  0.31812E-02
  0.41166E-02  0.52347E-02  0.61317E-02  0.65011E-02  0.62559E-02  0.54727E-02
  0.42919E-02  0.28816E-02  0.14458E-02  0.35741E-03  0.90447E-03  0.13832E-02
  0.13832E-02  0.90447E-03  0.35740E-03  0.14458E-02  0.28816E-02  0.42919E-02
  0.54727E-02  0.62559E-02  0.65011E-02  0.61317E-02  0.52347E-02  0.41166E-02
  0.52732E-03  0.62601E-03  0.72575E-03  0.86841E-03  0.10801E-02  0.13505E-02
  0.16388E-02  0.19019E-02  0.21295E-02  0.23543E-02  0.26230E-02  0.29582E-02
  0.33507E-02  0.37797E-02  0.42226E-02  0.46403E-02  0.49688E-02  0.51349E-02
  0.50796E-02  0.47628E-02  0.41635E-02  0.32871E-02  0.21752E-02  0.91916E-03
  0.62792E-03  0.19042E-02  0.30949E-02  0.40937E-02  0.49300E-02  0.56692E-02
  0.63064E-02  0.67273E-02  0.67784E-02  0.63624E-02  0.54727E-02  0.41736E-02
  0.25862E-02  0.92141E-03  0.94885E-03  0.23147E-02  0.33398E-02  0.38823E-02
  0.38823E-02  0.33398E-02  0.23147E-02  0.94885E-03  0.92141E-03  0.25862E-02
  0.41736E-02  0.54727E-02  0.63624E-02  0.67784E-02  0.67273E-02  0.63064E-02
  0.32842E-03  0.50497E-03  0.70505E-03  0.93436E-03  0.11849E-02  0.14335E-02
  0.16586E-02  0.18555E-02  0.20438E-02  0.22630E-02  0.25514E-02  0.29243E-02
  0.33748E-02  0.38886E-02  0.44436E-02  0.49909E-02  0.54528E-02  0.57483E-02
  0.58146E-02  0.56018E-02  0.50661E-02  0.41899E-02  0.30054E-02  0.15936E-02
  0.31249E-03  0.16548E-02  0.31885E-02  0.45567E-02  0.56744E-02  0.64898E-02
  0.69498E-02  0.69891E-02  0.65567E-02  0.56447E-02  0.42919E-02  0.25862E-02
  0.74845E-03  0.14695E-02  0.32760E-02  0.48059E-02  0.59145E-02  0.65005E-02
  0.65005E-02  0.59145E-02  0.48059E-02  0.32760E-02  0.14695E-02  0.74845E-03
  0.25862E-02  0.42919E-02  0.56447E-02  0.65567E-02  0.69891E-02  0.69498E-02
  0.24188E-03  0.40581E-03  0.67132E-03  0.94406E-03  0.11947E-02  0.14084E-02
  0.15891E-02  0.17539E-02  0.19290E-02  0.21491E-02  0.24497E-02  0.28506E-02
  0.33521E-02  0.39430E-02  0.45979E-02  0.52605E-02  0.58437E-02  0.62597E-02
  0.64415E-02  0.63331E-02  0.58776E-02  0.50390E-02  0.38365E-02  0.23462E-02
  0.69630E-03  0.11565E-02  0.28603E-02  0.43933E-02  0.56178E-02  0.64347E-02
  0.67698E-02  0.65723E-02  0.58289E-02  0.45731E-02  0.28816E-02  0.92141E-03
  0.14695E-02  0.36217E-02  0.55983E-02  0.72324E-02  0.84114E-02  0.90357E-02
  0.90357E-02  0.84114E-02  0.72324E-02  0.55983E-02  0.36218E-02  0.14695E-02
  0.92141E-03  0.28816E-02  0.45731E-02  0.58289E-02  0.65723E-02  0.67698E-02
  0.35266E-03  0.28818E-03  0.56285E-03  0.86281E-03  0.11161E-02  0.13150E-02
  0.14787E-02  0.16328E-02  0.18011E-02  0.20169E-02  0.23221E-02  0.27463E-02
  0.32938E-02  0.39512E-02  0.46889E-02  0.54476E-02  0.61358E-02  0.66593E-02
  0.69455E-02  0.69348E-02  0.65642E-02  0.57871E-02  0.46102E-02  0.31019E-02
  0.13714E-02  0.54468E-03  0.23182E-02  0.39235E-02  0.51778E-02  0.59608E-02
  0.61902E-02  0.58209E-02  0.48571E-02  0.33590E-02  0.14458E-02  0.94885E-03
  0.32760E-02  0.55983E-02  0.76892E-02  0.94074E-02  0.10644E-01  0.11298E-01
  0.11298E-01  0.10644E-01  0.94074E-02  0.76892E-02  0.55983E-02  0.32760E-02
  0.94885E-03  0.14458E-02  0.33590E-02  0.48571E-02  0.58209E-02  0.61902E-02
  0.54184E-03  0.25906E-03  0.45296E-03  0.76892E-03  0.10287E-02  0.12223E-02
  0.13765E-02  0.15198E-02  0.16762E-02  0.18834E-02  0.21926E-02  0.26396E-02
  0.32265E-02  0.39338E-02  0.47309E-02  0.55616E-02  0.63346E-02  0.69496E-02
  0.73263E-02  0.74005E-02  0.71064E-02  0.63920E-02  0.52567E-02  0.37637E-02
  0.20189E-02  0.24341E-03  0.17219E-02  0.33460E-02  0.45932E-02  0.53323E-02
  0.54782E-02  0.49890E-02  0.38781E-02  0.22241E-02  0.35741E-03  0.23147E-02
  0.48059E-02  0.72324E-02  0.94074E-02  0.11188E-01  0.12461E-01  0.13131E-01
  0.13131E-01  0.12461E-01  0.11188E-01  0.94074E-02  0.72324E-02  0.48059E-02
  0.23147E-02  0.35741E-03  0.22241E-02  0.38781E-02  0.49890E-02  0.54782E-02
  0.67796E-03  0.29894E-03  0.39558E-03  0.71785E-03  0.97965E-03  0.11653E-02
  0.13063E-02  0.14345E-02  0.15774E-02  0.17784E-02  0.20952E-02  0.25635E-02
  0.31786E-02  0.39156E-02  0.47465E-02  0.56226E-02  0.64557E-02  0.71400E-02
  0.75868E-02  0.77257E-02  0.74876E-02  0.68179E-02  0.57146E-02  0.42412E-02
  0.25054E-02  0.65865E-03  0.12296E-02  0.28399E-02  0.40649E-02  0.47672E-02
  0.48604E-02  0.43019E-02  0.31073E-02  0.13672E-02  0.90447E-03  0.33398E-02
  0.59144E-02  0.84114E-02  0.10644E-01  0.12461E-01  0.13750E-01  0.14422E-01
  0.14422E-01  0.13750E-01  0.12461E-01  0.10644E-01  0.84114E-02  0.59145E-02
  0.33398E-02  0.90447E-03  0.13672E-02  0.31073E-02  0.43019E-02  0.48604E-02
  0.74041E-03  0.32477E-03  0.37933E-03  0.70413E-03  0.96441E-03  0.11421E-02