       #
       # Generated by the Wannier90 code http://www.wannier.org
       # On 10May2024 at 21:04:43 
       #
CRYSTAL
PRIMVEC
   2.7281430   0.0000000   0.0000000
   0.0000000   2.7281430   0.0000000
   0.0000000   0.0000000   3.7789840
CONVVEC
   2.7281430   0.0000000   0.0000000
   0.0000000   2.7281430   0.0000000
   0.0000000   0.0000000   3.7789840
PRIMCOORD
     2  1
Fe      0.0000000   0.0000000   0.0000000
Pt      1.3640715   1.3640715   1.8894920


BEGIN_BLOCK_DATAGRID_3D
3D_field
BEGIN_DATAGRID_3D_UNKNOWN
    54    54    80
   -2.829185   -2.829185   -3.873459
   5.3552437   0.0000000   0.0000000
   0.0000000   5.3552437   0.0000000
   0.0000000   0.0000000   7.4634934
  0.27933E-01  0.27904E-01  0.22925E-01  0.15273E-01  0.74790E-02  0.14695E-02
  0.47729E-02  0.86856E-02  0.11252E-01  0.12188E-01  0.11529E-01  0.97343E-02
  0.74237E-02  0.50807E-02  0.29988E-02  0.13940E-02  0.50241E-03  0.49582E-03
  0.10709E-02  0.22063E-02  0.36414E-02  0.49668E-02  0.56131E-02  0.49215E-02
  0.32458E-02  0.59359E-02  0.12116E-01  0.17561E-01  0.19714E-01  0.17561E-01
  0.12116E-01  0.59359E-02  0.32458E-02  0.49215E-02  0.56131E-02  0.49668E-02
  0.36414E-02  0.22063E-02  0.10709E-02  0.49581E-03  0.50241E-03  0.13940E-02
  0.29988E-02  0.50807E-02  0.74237E-02  0.97343E-02  0.11529E-01  0.12188E-01
  0.11252E-01  0.86856E-02  0.47729E-02  0.14695E-02  0.74790E-02  0.15273E-01
  0.27904E-01  0.25675E-01  0.19111E-01  0.11133E-01  0.45436E-02  0.25427E-02
  0.49527E-02  0.70843E-02  0.84633E-02  0.88162E-02  0.80478E-02  0.64492E-02
  0.45154E-02  0.26557E-02  0.11183E-02  0.24137E-03  0.49689E-03  0.46413E-03
  0.11829E-02  0.26798E-02  0.44217E-02  0.58917E-02  0.62681E-02  0.45041E-02
  0.30578E-02  0.11064E-01  0.21595E-01  0.30369E-01  0.33794E-01  0.30369E-01
  0.21595E-01  0.11064E-01  0.30578E-02  0.45041E-02  0.62681E-02  0.58917E-02
  0.44217E-02  0.26798E-02  0.11829E-02  0.46412E-03  0.49689E-03  0.24137E-03
  0.11183E-02  0.26557E-02  0.45154E-02  0.64492E-02  0.80478E-02  0.88162E-02
  0.84633E-02  0.70843E-02  0.49527E-02  0.25427E-02  0.45436E-02  0.11133E-01
  0.22925E-01  0.19111E-01  0.12339E-01  0.59916E-02  0.36789E-02  0.44180E-02
  0.49375E-02  0.52361E-02  0.53936E-02  0.51285E-02  0.42313E-02  0.28361E-02
  0.13300E-02  0.57890E-03  0.13590E-02  0.18679E-02  0.17638E-02  0.10233E-02
  0.99442E-03  0.28220E-02  0.49230E-02  0.66209E-02  0.69030E-02  0.43996E-02
  0.35056E-02  0.14327E-01  0.27470E-01  0.38313E-01  0.42532E-01  0.38313E-01
  0.27470E-01  0.14327E-01  0.35056E-02  0.43996E-02  0.69030E-02  0.66209E-02
  0.49230E-02  0.28220E-02  0.99442E-03  0.10233E-02  0.17638E-02  0.18679E-02
  0.13590E-02  0.57891E-03  0.13300E-02  0.28361E-02  0.42312E-02  0.51285E-02
  0.53936E-02  0.52361E-02  0.49375E-02  0.44180E-02  0.36789E-02  0.59916E-02
  0.15273E-01  0.11133E-01  0.59916E-02  0.43962E-02  0.54241E-02  0.51770E-02
  0.39997E-02  0.28831E-02  0.20993E-02  0.13828E-02  0.74591E-03  0.13615E-02
  0.25163E-02  0.34925E-02  0.40698E-02  0.40995E-02  0.34525E-02  0.21065E-02
  0.82907E-03  0.27699E-02  0.53039E-02  0.73794E-02  0.79398E-02  0.55221E-02
  0.20843E-02  0.12862E-01  0.26103E-01  0.37036E-01  0.41292E-01  0.37036E-01
  0.26103E-01  0.12862E-01  0.20843E-02  0.55221E-02  0.79398E-02  0.73794E-02
  0.53039E-02  0.27699E-02  0.82907E-03  0.21065E-02  0.34525E-02  0.40995E-02
  0.40698E-02  0.34925E-02  0.25163E-02  0.13615E-02  0.74592E-03  0.13828E-02
  0.20993E-02  0.28831E-02  0.39997E-02  0.51770E-02  0.54241E-02  0.43962E-02
  0.74789E-02  0.45436E-02  0.36789E-02  0.54241E-02  0.56974E-02  0.41794E-02
  0.19480E-02  0.41538E-03  0.16682E-02  0.28690E-02  0.40543E-02  0.52326E-02
  0.62372E-02  0.68817E-02  0.70213E-02  0.65281E-02  0.52986E-02  0.33340E-02
  0.10782E-02  0.27054E-02  0.57261E-02  0.83068E-02  0.94946E-02  0.80137E-02
  0.28515E-02  0.67272E-02  0.17713E-01  0.26886E-01  0.30470E-01  0.26886E-01
  0.17713E-01  0.67272E-02  0.28515E-02  0.80137E-02  0.94945E-02  0.83068E-02
  0.57261E-02  0.27054E-02  0.10782E-02  0.33340E-02  0.52986E-02  0.65281E-02
  0.70213E-02  0.68817E-02  0.62372E-02  0.52326E-02  0.40543E-02  0.28690E-02
  0.16682E-02  0.41538E-03  0.19480E-02  0.41794E-02  0.56974E-02  0.54241E-02
  0.14695E-02  0.25427E-02  0.44180E-02  0.51770E-02  0.41794E-02  0.18628E-02
  0.86017E-03  0.32719E-02  0.51842E-02  0.67401E-02  0.80890E-02  0.92170E-02
  0.99927E-02  0.10271E-01  0.99313E-02  0.88695E-02  0.70235E-02  0.44373E-02
  0.14739E-02  0.27316E-02  0.62336E-02  0.93468E-02  0.11303E-01  0.11160E-01
  0.80920E-02  0.22809E-02  0.57993E-02  0.12176E-01  0.14700E-01  0.12176E-01
  0.57993E-02  0.22809E-02  0.80920E-02  0.11160E-01  0.11303E-01  0.93468E-02
  0.62336E-02  0.27316E-02  0.14739E-02  0.44373E-02  0.70235E-02  0.88695E-02
  0.99313E-02  0.10271E-01  0.99927E-02  0.92170E-02  0.80890E-02  0.67401E-02
  0.51842E-02  0.32718E-02  0.86017E-03  0.18628E-02  0.41794E-02  0.51770E-02
  0.47729E-02  0.49527E-02  0.49375E-02  0.39997E-02  0.19480E-02  0.86017E-03
  0.37839E-02  0.64197E-02  0.86307E-02  0.10458E-01  0.11928E-01  0.12976E-01
  0.13489E-01  0.13362E-01  0.12506E-01  0.10860E-01  0.84208E-02  0.52810E-02
  0.17825E-02  0.28047E-02  0.67011E-02  0.10262E-01  0.12902E-01  0.14007E-01
  0.13063E-01  0.10055E-01  0.58850E-02  0.23624E-02  0.13129E-02  0.23624E-02
  0.58850E-02  0.10055E-01  0.13063E-01  0.14007E-01  0.12902E-01  0.10262E-01
  0.67011E-02  0.28047E-02  0.17825E-02  0.52810E-02  0.84208E-02  0.10860E-01
  0.12506E-01  0.13362E-01  0.13489E-01  0.12976E-01  0.11928E-01  0.10458E-01
  0.86307E-02  0.64197E-02  0.37839E-02  0.86017E-03  0.19480E-02  0.39997E-02
  0.86856E-02  0.70843E-02  0.52361E-02  0.28831E-02  0.41538E-03  0.32719E-02
  0.64197E-02  0.92971E-02  0.11784E-01  0.13822E-01  0.15337E-01  0.16233E-01
  0.16430E-01  0.15869E-01  0.14509E-01  0.12343E-01  0.94254E-02  0.58869E-02
  0.20433E-02  0.27689E-02  0.68977E-02  0.10747E-01  0.13860E-01  0.15858E-01
  0.16465E-01  0.15684E-01  0.13995E-01  0.12325E-01  0.11631E-01  0.12325E-01
  0.13995E-01  0.15684E-01  0.16465E-01  0.15858E-01  0.13860E-01  0.10747E-01
  0.68977E-02  0.27689E-02  0.20433E-02  0.58869E-02  0.94254E-02  0.12343E-01
  0.14509E-01  0.15869E-01  0.16430E-01  0.16233E-01  0.15337E-01  0.13822E-01
  0.11784E-01  0.92971E-02  0.64197E-02  0.32718E-02  0.41539E-03  0.28831E-02
  0.11252E-01  0.84633E-02  0.53936E-02  0.20993E-02  0.16682E-02  0.51842E-02
  0.86307E-02  0.11784E-01  0.14500E-01  0.16642E-01  0.18085E-01  0.18744E-01
  0.18586E-01  0.17611E-01  0.15834E-01  0.13296E-01  0.10089E-01  0.63597E-02
  0.23770E-02  0.24780E-02  0.66292E-02  0.10575E-01  0.13918E-01  0.16413E-01
  0.17923E-01  0.18465E-01  0.18288E-01  0.17852E-01  0.17638E-01  0.17852E-01
  0.18288E-01  0.18465E-01  0.17923E-01  0.16413E-01  0.13918E-01  0.10575E-01
  0.66292E-02  0.24780E-02  0.23770E-02  0.63597E-02  0.10089E-01  0.13296E-01
  0.15834E-01  0.17611E-01  0.18586E-01  0.18744E-01  0.18085E-01  0.16642E-01
  0.14500E-01  0.11784E-01  0.86307E-02  0.51842E-02  0.16682E-02  0.20993E-02
  0.12188E-01  0.88162E-02  0.51285E-02  0.13828E-02  0.28690E-02  0.67401E-02
  0.10458E-01  0.13822E-01  0.16642E-01  0.18741E-01  0.19994E-01  0.20358E-01
  0.19860E-01  0.18557E-01  0.16510E-01  0.13789E-01  0.10501E-01  0.67839E-02
  0.28552E-02  0.19144E-02  0.58399E-02  0.96753E-02  0.13015E-01  0.15678E-01
  0.17585E-01  0.18758E-01  0.19324E-01  0.19505E-01  0.19532E-01  0.19505E-01
  0.19323E-01  0.18758E-01  0.17585E-01  0.15678E-01  0.13015E-01  0.96753E-02
  0.58399E-02  0.19144E-02  0.28552E-02  0.67839E-02  0.10501E-01  0.13789E-01
  0.16510E-01  0.18557E-01  0.19860E-01  0.20358E-01  0.19994E-01  0.18741E-01
  0.16642E-01  0.13822E-01  0.10458E-01  0.67401E-02  0.28690E-02  0.13828E-02
  0.11529E-01  0.80478E-02  0.42313E-02  0.74592E-03  0.40543E-02  0.80890E-02
  0.11928E-01  0.15337E-01  0.18085E-01  0.19994E-01  0.20978E-01  0.21050E-01
  0.20288E-01  0.18787E-01  0.16635E-01  0.13914E-01  0.10723E-01  0.71846E-02
  0.34736E-02  0.12779E-02  0.46014E-02  0.81229E-02  0.11244E-01  0.13815E-01
  0.15778E-01  0.17144E-01  0.17981E-01  0.18405E-01  0.18530E-01  0.18405E-01
  0.17981E-01  0.17144E-01  0.15778E-01  0.13815E-01  0.11244E-01  0.81229E-02
  0.46013E-02  0.12779E-02  0.34736E-02  0.71846E-02  0.10723E-01  0.13914E-01
  0.16635E-01  0.18787E-01  0.20288E-01  0.21050E-01  0.20978E-01  0.19994E-01
  0.18085E-01  0.15337E-01  0.11928E-01  0.80890E-02  0.40543E-02  0.74592E-03
  0.97343E-02  0.64492E-02  0.28361E-02  0.13615E-02  0.52326E-02  0.92170E-02
  0.12976E-01  0.16233E-01  0.18744E-01  0.20358E-01  0.21050E-01  0.20885E-01
  0.19972E-01  0.18417E-01  0.16309E-01  0.13735E-01  0.10781E-01  0.75537E-02
  0.41946E-02  0.12798E-02  0.30581E-02  0.60759E-02  0.87965E-02  0.11071E-01
  0.12849E-01  0.14134E-01  0.14969E-01  0.15424E-01  0.15567E-01  0.15424E-01
  0.14969E-01  0.14134E-01  0.12849E-01  0.11071E-01  0.87965E-02  0.60759E-02
  0.30581E-02  0.12798E-02  0.41946E-02  0.75537E-02  0.10781E-01  0.13735E-01
  0.16309E-01  0.18417E-01  0.19972E-01  0.20885E-01  0.21050E-01  0.20358E-01
  0.18744E-01  0.16233E-01  0.12976E-01  0.92170E-02  0.52326E-02  0.13615E-02
  0.74237E-02  0.45154E-02  0.13300E-02  0.25163E-02  0.62372E-02  0.99927E-02
  0.13489E-01  0.16430E-01  0.18586E-01  0.19860E-01  0.20288E-01  0.19972E-01
  0.19025E-01  0.17538E-01  0.15597E-01  0.13285E-01  0.10683E-01  0.78750E-02
  0.49760E-02  0.22232E-02  0.15368E-02  0.37395E-02  0.59074E-02  0.77241E-02
  0.91363E-02  0.10149E-01  0.10805E-01  0.11163E-01  0.11276E-01  0.11163E-01
  0.10805E-01  0.10149E-01  0.91363E-02  0.77241E-02  0.59074E-02  0.37395E-02
  0.15368E-02  0.22232E-02  0.49760E-02  0.78750E-02  0.10683E-01  0.13285E-01
  0.15597E-01  0.17538E-01  0.19025E-01  0.19972E-01  0.20288E-01  0.19860E-01
  0.18586E-01  0.16430E-01  0.13489E-01  0.99927E-02  0.62372E-02  0.25163E-02
  0.50807E-02  0.26557E-02  0.57890E-03  0.34925E-02  0.68817E-02  0.10271E-01
  0.13362E-01  0.15869E-01  0.17611E-01  0.18557E-01  0.18787E-01  0.18417E-01
  0.17538E-01  0.16224E-01  0.14549E-01  0.12593E-01  0.10429E-01  0.81229E-02
  0.57601E-02  0.34829E-02  0.16167E-02  0.15404E-02  0.28381E-02  0.40362E-02
  0.49395E-02  0.55466E-02  0.59077E-02  0.60888E-02  0.61427E-02  0.60888E-02
  0.59077E-02  0.55466E-02  0.49395E-02  0.40362E-02  0.28381E-02  0.15404E-02
  0.16167E-02  0.34829E-02  0.57601E-02  0.81229E-02  0.10429E-01  0.12593E-01
  0.14549E-01  0.16224E-01  0.17538E-01  0.18417E-01  0.18787E-01  0.18557E-01
  0.17611E-01  0.15869E-01  0.13362E-01  0.10271E-01  0.68817E-02  0.34925E-02
  0.29988E-02  0.11183E-02  0.13590E-02  0.40698E-02  0.70213E-02  0.99313E-02
  0.12506E-01  0.14509E-01  0.15834E-01  0.16510E-01  0.16635E-01  0.16309E-01
  0.15597E-01  0.14549E-01  0.13227E-01  0.11701E-01  0.10032E-01  0.82702E-02
  0.64870E-02  0.47925E-02  0.33161E-02  0.21673E-02  0.14207E-02  0.10853E-02
  0.10038E-02  0.96446E-03  0.89284E-03  0.81512E-03  0.78132E-03  0.81512E-03
  0.89284E-03  0.96446E-03  0.10038E-02  0.10853E-02  0.14207E-02  0.21673E-02
  0.33161E-02  0.47925E-02  0.64870E-02  0.82702E-02  0.10032E-01  0.11701E-01
  0.13227E-01  0.14549E-01  0.15597E-01  0.16309E-01  0.16635E-01  0.16510E-01
  0.15834E-01  0.14509E-01  0.12506E-01  0.99313E-02  0.70213E-02  0.40698E-02
  0.13940E-02  0.24137E-03  0.18679E-02  0.40995E-02  0.65281E-02  0.88695E-02
  0.10860E-01  0.12343E-01  0.13296E-01  0.13789E-01  0.13914E-01  0.13735E-01
  0.13285E-01  0.12593E-01  0.11701E-01  0.10658E-01  0.95142E-02  0.83184E-02
  0.71435E-02  0.60902E-02  0.52549E-02  0.46856E-02  0.43709E-02  0.42669E-02
  0.43238E-02  0.44872E-02  0.46891E-02  0.48527E-02  0.49153E-02  0.48527E-02
  0.46891E-02  0.44872E-02  0.43238E-02  0.42669E-02  0.43709E-02  0.46856E-02
  0.52549E-02  0.60902E-02  0.71435E-02  0.83184E-02  0.95142E-02  0.10658E-01
  0.11701E-01  0.12593E-01  0.13285E-01  0.13735E-01  0.13914E-01  0.13789E-01
  0.13296E-01  0.12343E-01  0.10860E-01  0.88695E-02  0.65281E-02  0.40995E-02
  0.50241E-03  0.49689E-03  0.17638E-02  0.34525E-02  0.52986E-02  0.70235E-02
  0.84208E-02  0.94254E-02  0.10089E-01  0.10501E-01  0.10723E-01  0.10781E-01
  0.10683E-01  0.10429E-01  0.10032E-01  0.95142E-02  0.89215E-02  0.83181E-02
  0.77841E-02  0.74050E-02  0.72466E-02  0.73260E-02  0.76053E-02  0.80156E-02
  0.84885E-02  0.89649E-02  0.93834E-02  0.96750E-02  0.97803E-02  0.96750E-02
  0.93834E-02  0.89649E-02  0.84885E-02  0.80156E-02  0.76053E-02  0.73260E-02
  0.72466E-02  0.74050E-02  0.77841E-02  0.83181E-02  0.89215E-02  0.95142E-02
  0.10032E-01  0.10429E-01  0.10683E-01  0.10781E-01  0.10723E-01  0.10501E-01
  0.10089E-01  0.94254E-02  0.84208E-02  0.70235E-02  0.52986E-02  0.34525E-02
  0.49582E-03  0.46413E-03  0.10233E-02  0.21065E-02  0.33340E-02  0.44373E-02
  0.52810E-02  0.58869E-02  0.63597E-02  0.67839E-02  0.71846E-02  0.75538E-02
  0.78750E-02  0.81229E-02  0.82702E-02  0.83184E-02  0.83181E-02  0.83490E-02
  0.84831E-02  0.87669E-02  0.92183E-02  0.98230E-02  0.10530E-01  0.11269E-01
  0.11972E-01  0.12594E-01  0.13091E-01  0.13420E-01  0.13535E-01  0.13420E-01
  0.13091E-01  0.12594E-01  0.11972E-01  0.11269E-01  0.10530E-01  0.98230E-02
  0.92183E-02  0.87669E-02  0.84831E-02  0.83490E-02  0.83181E-02  0.83184E-02
  0.82702E-02  0.81229E-02  0.78750E-02  0.75537E-02  0.71846E-02  0.67839E-02
  0.63597E-02  0.58869E-02  0.52810E-02  0.44373E-02  0.33340E-02  0.21065E-02
  0.10709E-02  0.11829E-02  0.99442E-03  0.82907E-03  0.10782E-02  0.14739E-02
  0.17825E-02  0.20433E-02  0.23770E-02  0.28552E-02  0.34736E-02  0.41947E-02
  0.49760E-02  0.57601E-02  0.64870E-02  0.71435E-02  0.77841E-02  0.84831E-02
  0.92743E-02  0.10142E-01  0.11055E-01  0.11981E-01  0.12877E-01  0.13683E-01
  0.14348E-01  0.14852E-01  0.15200E-01  0.15407E-01  0.15475E-01  0.15407E-01
  0.15200E-01  0.14852E-01  0.14348E-01  0.13683E-01  0.12877E-01  0.11981E-01
  0.11055E-01  0.10142E-01  0.92743E-02  0.84831E-02  0.77841E-02  0.71435E-02
  0.64870E-02  0.57601E-02  0.49760E-02  0.41947E-02  0.34736E-02  0.28552E-02
  0.23770E-02  0.20433E-02  0.17825E-02  0.14739E-02  0.10782E-02  0.82907E-03
  0.22063E-02  0.26798E-02  0.28220E-02  0.27699E-02  0.27054E-02  0.27316E-02
  0.28047E-02  0.27689E-02  0.24780E-02  0.19144E-02  0.12779E-02  0.12798E-02
  0.22232E-02  0.34829E-02  0.47925E-02  0.60902E-02  0.74050E-02  0.87669E-02
  0.10142E-01  0.11453E-01  0.12631E-01  0.13635E-01  0.14414E-01  0.14911E-01
  0.15103E-01  0.15045E-01  0.14861E-01  0.14684E-01  0.14614E-01  0.14684E-01
  0.14861E-01  0.15045E-01  0.15103E-01  0.14911E-01  0.14414E-01  0.13635E-01
  0.12631E-01  0.11453E-01  0.10142E-01  0.87669E-02  0.74050E-02  0.60902E-02
  0.47925E-02  0.34829E-02  0.22232E-02  0.12798E-02  0.12779E-02  0.19144E-02
  0.24780E-02  0.27689E-02  0.28047E-02  0.27316E-02  0.27054E-02  0.27699E-02
  0.36414E-02  0.44217E-02  0.49230E-02  0.53039E-02  0.57261E-02  0.62336E-02
  0.67011E-02  0.68977E-02  0.66292E-02  0.58399E-02  0.46013E-02  0.30581E-02
  0.15368E-02  0.16167E-02  0.33161E-02  0.52549E-02  0.72466E-02  0.92183E-02
  0.11055E-01  0.12631E-01  0.13851E-01  0.14627E-01  0.14859E-01  0.14484E-01
  0.13577E-01  0.12375E-01  0.11205E-01  0.10370E-01  0.10070E-01  0.10370E-01
  0.11205E-01  0.12375E-01  0.13577E-01  0.14484E-01  0.14859E-01  0.14627E-01
  0.13851E-01  0.12631E-01  0.11055E-01  0.92183E-02  0.72466E-02  0.52549E-02
  0.33161E-02  0.16167E-02  0.15368E-02  0.30581E-02  0.46013E-02  0.58399E-02
  0.66292E-02  0.68977E-02  0.67011E-02  0.62336E-02  0.57261E-02  0.53039E-02
  0.49668E-02  0.58917E-02  0.66209E-02  0.73794E-02  0.83068E-02  0.93468E-02
  0.10262E-01  0.10747E-01  0.10575E-01  0.96753E-02  0.81229E-02  0.60759E-02
  0.37395E-02  0.15404E-02  0.21673E-02  0.46856E-02  0.73260E-02  0.98230E-02
  0.11981E-01  0.13635E-01  0.14627E-01  0.14764E-01  0.13867E-01  0.11950E-01
  0.93370E-02  0.65877E-02  0.42836E-02  0.28322E-02  0.23611E-02  0.28322E-02
  0.42836E-02  0.65877E-02  0.93370E-02  0.11950E-01  0.13867E-01  0.14764E-01
  0.14627E-01  0.13635E-01  0.11981E-01  0.98230E-02  0.73260E-02  0.46856E-02
  0.21673E-02  0.15404E-02  0.37395E-02  0.60759E-02  0.81229E-02  0.96753E-02
  0.10575E-01  0.10747E-01  0.10262E-01  0.93468E-02  0.83068E-02  0.73794E-02
  0.56131E-02  0.62681E-02  0.69030E-02  0.79398E-02  0.94946E-02  0.11303E-01
  0.12902E-01  0.13860E-01  0.13918E-01  0.13015E-01  0.11244E-01  0.87965E-02
  0.59074E-02  0.28381E-02  0.14207E-02  0.43709E-02  0.76053E-02  0.10530E-01
  0.12877E-01  0.14414E-01  0.14859E-01  0.13867E-01  0.11261E-01  0.73343E-02
  0.30134E-02  0.21819E-02  0.49770E-02  0.67774E-02  0.73672E-02  0.67774E-02
  0.49770E-02  0.21819E-02  0.30134E-02  0.73343E-02  0.11261E-01  0.13867E-01
  0.14859E-01  0.14414E-01  0.12877E-01  0.10530E-01  0.76053E-02  0.43709E-02
  0.14207E-02  0.28381E-02  0.59074E-02  0.87965E-02  0.11244E-01  0.13015E-01
  0.13918E-01  0.13860E-01  0.12902E-01  0.11303E-01  0.94946E-02  0.79398E-02
  0.49215E-02  0.45041E-02  0.43996E-02  0.55221E-02  0.80137E-02  0.11160E-01
  0.14007E-01  0.15858E-01  0.16413E-01  0.15678E-01  0.13815E-01  0.11071E-01
  0.77241E-02  0.40362E-02  0.10853E-02  0.42669E-02  0.80156E-02  0.11269E-01
  0.13683E-01  0.14911E-01  0.14484E-01  0.11950E-01  0.73343E-02  0.19340E-02
  0.50501E-02  0.95827E-02  0.12394E-01  0.13698E-01  0.14045E-01  0.13698E-01
  0.12394E-01  0.95827E-02  0.50501E-02  0.19340E-02  0.73343E-02  0.11950E-01
  0.14484E-01  0.14911E-01  0.13683E-01  0.11269E-01  0.80156E-02  0.42669E-02
  0.10853E-02  0.40362E-02  0.77241E-02  0.11071E-01  0.13815E-01  0.15678E-01
  0.16413E-01  0.15858E-01  0.14007E-01  0.11160E-01  0.80137E-02  0.55221E-02
  0.32458E-02  0.30578E-02  0.35056E-02  0.20843E-02  0.28515E-02  0.80920E-02
  0.13063E-01  0.16465E-01  0.17923E-01  0.17585E-01  0.15778E-01  0.12849E-01
  0.91363E-02  0.49395E-02  0.10038E-02  0.43238E-02  0.84885E-02  0.11972E-01
  0.14348E-01  0.15103E-01  0.13577E-01  0.93370E-02  0.30134E-02  0.50501E-02
  0.11103E-01  0.14704E-01  0.15833E-01  0.15635E-01  0.15391E-01  0.15635E-01
  0.15833E-01  0.14704E-01  0.11103E-01  0.50501E-02  0.30134E-02  0.93370E-02
  0.13577E-01  0.15103E-01  0.14348E-01  0.11972E-01  0.84885E-02  0.43238E-02
  0.10038E-02  0.49395E-02  0.91363E-02  0.12849E-01  0.15778E-01  0.17585E-01
  0.17923E-01  0.16465E-01  0.13063E-01  0.80920E-02  0.28515E-02  0.20843E-02
  0.59359E-02  0.11064E-01  0.14327E-01  0.12862E-01  0.67272E-02  0.22809E-02
  0.10055E-01  0.15684E-01  0.18465E-01  0.18758E-01  0.17144E-01  0.14134E-01
  0.10149E-01  0.55466E-02  0.96446E-03  0.44872E-02  0.89649E-02  0.12594E-01
  0.14852E-01  0.15045E-01  0.12375E-01  0.65877E-02  0.21819E-02  0.95827E-02
  0.14704E-01  0.16050E-01  0.14516E-01  0.12263E-01  0.11263E-01  0.12263E-01
  0.14516E-01  0.16050E-01  0.14704E-01  0.95827E-02  0.21819E-02  0.65877E-02
  0.12375E-01  0.15045E-01  0.14852E-01  0.12594E-01  0.89649E-02  0.44872E-02
  0.96446E-03  0.55466E-02  0.10149E-01  0.14134E-01  0.17144E-01  0.18758E-01
  0.18465E-01  0.15684E-01  0.10055E-01  0.22809E-02  0.67272E-02  0.12863E-01
  0.12116E-01  0.21595E-01  0.27470E-01  0.26103E-01  0.17713E-01  0.57993E-02
  0.58850E-02  0.13995E-01  0.18288E-01  0.19324E-01  0.17981E-01  0.14969E-01
  0.10805E-01  0.59077E-02  0.89284E-03  0.46891E-02  0.93834E-02  0.13091E-01
  0.15200E-01  0.14861E-01  0.11205E-01  0.42836E-02  0.49770E-02  0.12394E-01
  0.15833E-01  0.14516E-01  0.10278E-01  0.62771E-02  0.48397E-02  0.62771E-02
  0.10278E-01  0.14516E-01  0.15833E-01  0.12394E-01  0.49770E-02  0.42836E-02
  0.11205E-01  0.14861E-01  0.15200E-01  0.13091E-01  0.93834E-02  0.46891E-02
  0.89284E-03  0.59077E-02  0.10805E-01  0.14969E-01  0.17981E-01  0.19324E-01
  0.18288E-01  0.13995E-01  0.58850E-02  0.57993E-02  0.17713E-01  0.26103E-01
  0.17561E-01  0.30369E-01  0.38313E-01  0.37036E-01  0.26886E-01  0.12176E-01
  0.23624E-02  0.12325E-01  0.17852E-01  0.19505E-01  0.18405E-01  0.15424E-01
  0.11163E-01  0.60888E-02  0.81512E-03  0.48527E-02  0.96750E-02  0.13420E-01
  0.15407E-01  0.14684E-01  0.10370E-01  0.28322E-02  0.67774E-02  0.13698E-01
  0.15635E-01  0.12263E-01  0.62771E-02  0.32534E-02  0.42039E-02  0.32534E-02
  0.62771E-02  0.12263E-01  0.15635E-01  0.13698E-01  0.67774E-02  0.28322E-02
  0.10370E-01  0.14684E-01  0.15407E-01  0.13420E-01  0.96750E-02  0.48527E-02
  0.81512E-03  0.60888E-02  0.11163E-01  0.15424E-01  0.18405E-01  0.19505E-01
  0.17852E-01  0.12325E-01  0.23624E-02  0.12176E-01  0.26886E-01  0.37036E-01
  0.19714E-01  0.33794E-01  0.42532E-01  0.41292E-01  0.30470E-01  0.14700E-01
  0.13129E-02  0.11631E-01  0.17638E-01  0.19532E-01  0.18530E-01  0.15567E-01
  0.11276E-01  0.61427E-02  0.78132E-03  0.49153E-02  0.97803E-02  0.13535E-01
  0.15475E-01  0.14614E-01  0.10070E-01  0.23611E-02  0.73672E-02  0.14045E-01
  0.15391E-01  0.11263E-01  0.48397E-02  0.42039E-02  0.60729E-02  0.42039E-02
  0.48397E-02  0.11263E-01  0.15391E-01  0.14045E-01  0.73672E-02  0.23611E-02
  0.10070E-01  0.14614E-01  0.15475E-01  0.13535E-01  0.97803E-02  0.49153E-02
  0.78132E-03  0.61427E-02  0.11276E-01  0.15567E-01  0.18530E-01  0.19532E-01
  0.17638E-01  0.11631E-01  0.13129E-02  0.14700E-01  0.30470E-01  0.41292E-01
  0.17561E-01  0.30369E-01  0.38313E-01  0.37036E-01  0.26886E-01  0.12176E-01
  0.23624E-02  0.12325E-01  0.17852E-01  0.19505E-01  0.18405E-01  0.15424E-01
  0.11163E-01  0.60888E-02  0.81512E-03  0.48527E-02  0.96750E-02  0.13420E-01
  0.15407E-01  0.14684E-01  0.10370E-01  0.28322E-02  0.67774E-02  0.13698E-01
  0.15635E-01  0.12263E-01  0.62771E-02  0.32534E-02  0.42039E-02  0.32534E-02
  0.62771E-02  0.12263E-01  0.15635E-01  0.13698E-01  0.67774E-02  0.28322E-02
  0.10370E-01  0.14684E-01  0.15407E-01  0.13420E-01  0.96750E-02  0.48527E-02
  0.81512E-03  0.60888E-02  0.11163E-01  0.15424E-01  0.18405E-01  0.19505E-01
  0.17852E-01  0.12325E-01  0.23624E-02  0.12176E-01  0.26886E-01  0.37036E-01
  0.12116E-01  0.21595E-01  0.27470E-01  0.26103E-01  0.17713E-01  0.57993E-02
  0.58850E-02  0.13995E-01  0.18288E-01  0.19324E-01  0.17981E-01  0.14969E-01
  0.10805E-01  0.59077E-02  0.89284E-03  0.46891E-02  0.93834E-02  0.13091E-01
  0.15200E-01  0.14861E-01  0.11205E-01  0.42836E-02  0.49770E-02  0.12394E-01
  0.15833E-01  0.14516E-01  0.10278E-01  0.62771E-02  0.48397E-02  0.62771E-02
  0.10278E-01  0.14516E-01  0.15833E-01  0.12394E-01  0.49770E-02  0.42836E-02
  0.11205E-01  0.14861E-01  0.15200E-01  0.13091E-01  0.93834E-02  0.46891E-02
  0.89284E-03  0.59077E-02  0.10805E-01  0.14969E-01  0.17981E-01  0.19323E-01
  0.18288E-01  0.13995E-01  0.58850E-02  0.57993E-02  0.17713E-01  0.26103E-01
  0.59359E-02  0.11064E-01  0.14327E-01  0.12863E-01  0.67272E-02  0.22809E-02
  0.10055E-01  0.15684E-01  0.18465E-01  0.18758E-01  0.17144E-01  0.14134E-01
  0.10149E-01  0.55466E-02  0.96446E-03  0.44872E-02  0.89649E-02  0.12594E-01
  0.14852E-01  0.15045E-01  0.12375E-01  0.65877E-02  0.21819E-02  0.95827E-02
  0.14704E-01  0.16050E-01  0.14516E-01  0.12263E-01  0.11263E-01  0.12263E-01
  0.14516E-01  0.16050E-01  0.14704E-01  0.95827E-02  0.21819E-02  0.65877E-02
  0.12375E-01  0.15045E-01  0.14852E-01  0.12594E-01  0.89649E-02  0.44872E-02
  0.96445E-03  0.55466E-02  0.10149E-01  0.14134E-01  0.17144E-01  0.18758E-01
  0.18465E-01  0.15684E-01  0.10055E-01  0.22809E-02  0.67272E-02  0.12862E-01
  0.32458E-02  0.30578E-02  0.35056E-02  0.20843E-02  0.28515E-02  0.80920E-02
  0.13063E-01  0.16465E-01  0.17923E-01  0.17585E-01  0.15778E-01  0.12849E-01
  0.91363E-02  0.49395E-02  0.10038E-02  0.43238E-02  0.84885E-02  0.11972E-01
  0.14348E-01  0.15103E-01  0.13577E-01  0.93370E-02  0.30134E-02  0.50501E-02
  0.11103E-01  0.14704E-01  0.15833E-01  0.15635E-01  0.15391E-01  0.15635E-01
  0.15833E-01  0.14704E-01  0.11103E-01  0.50501E-02  0.30134E-02  0.93370E-02
  0.13577E-01  0.15103E-01  0.14348E-01  0.11972E-01  0.84885E-02  0.43238E-02
  0.10038E-02  0.49395E-02  0.91363E-02  0.12849E-01  0.15778E-01  0.17585E-01
  0.17923E-01  0.16465E-01  0.13063E-01  0.80920E-02  0.28515E-02  0.20843E-02
  0.49215E-02  0.45041E-02  0.43996E-02  0.55221E-02  0.80137E-02  0.11160E-01
  0.14007E-01  0.15858E-01  0.16413E-01  0.15678E-01  0.13815E-01  0.11071E-01
  0.77241E-02  0.40362E-02  0.10853E-02  0.42669E-02  0.80156E-02  0.11269E-01
  0.13683E-01  0.14911E-01  0.14484E-01  0.11950E-01  0.73343E-02  0.19340E-02
  0.50501E-02  0.95827E-02  0.12394E-01  0.13698E-01  0.14045E-01  0.13698E-01
  0.12394E-01  0.95827E-02  0.50501E-02  0.19340E-02  0.73343E-02  0.11950E-01
  0.14484E-01  0.14911E-01  0.13683E-01  0.11269E-01  0.80156E-02  0.42669E-02
  0.10853E-02  0.40362E-02  0.77241E-02  0.11071E-01  0.13815E-01  0.15678E-01
  0.16413E-01  0.15858E-01  0.14007E-01  0.11160E-01  0.80137E-02  0.55221E-02
  0.56131E-02  0.62681E-02  0.69030E-02  0.79398E-02  0.94946E-02  0.11303E-01
  0.12902E-01  0.13860E-01  0.13918E-01  0.13015E-01  0.11244E-01  0.87965E-02
  0.59074E-02  0.28381E-02  0.14207E-02  0.43709E-02  0.76053E-02  0.10530E-01
  0.12877E-01  0.14414E-01  0.14859E-01  0.13867E-01  0.11261E-01  0.73343E-02
  0.30134E-02  0.21819E-02  0.49770E-02  0.67774E-02  0.73672E-02  0.67774E-02
  0.49770E-02  0.21819E-02  0.30134E-02  0.73343E-02  0.11261E-01  0.13867E-01
  0.14859E-01  0.14414E-01  0.12877E-01  0.10530E-01  0.76053E-02  0.43709E-02
  0.14207E-02  0.28381E-02  0.59074E-02  0.87965E-02  0.11244E-01  0.13015E-01
  0.13918E-01  0.13860E-01  0.12902E-01  0.11303E-01  0.94946E-02  0.79398E-02
  0.49668E-02  0.58917E-02  0.66209E-02  0.73794E-02  0.83068E-02  0.93468E-02
  0.10262E-01  0.10747E-01  0.10575E-01  0.96753E-02  0.81229E-02  0.60759E-02
  0.37395E-02  0.15404E-02  0.21674E-02  0.46856E-02  0.73260E-02  0.98230E-02
  0.11981E-01  0.13635E-01  0.14627E-01  0.14764E-01  0.13867E-01  0.11950E-01
  0.93370E-02  0.65877E-02  0.42836E-02  0.28322E-02  0.23611E-02  0.28322E-02
  0.42836E-02  0.65877E-02  0.93370E-02  0.11950E-01  0.13867E-01  0.14764E-01
  0.14627E-01  0.13635E-01  0.11981E-01  0.98230E-02  0.73260E-02  0.46856E-02
  0.21673E-02  0.15404E-02  0.37395E-02  0.60759E-02  0.81229E-02  0.96753E-02
  0.10575E-01  0.10747E-01  0.10262E-01  0.93468E-02  0.83068E-02  0.73794E-02
  0.36414E-02  0.44217E-02  0.49230E-02  0.53039E-02  0.57261E-02  0.62336E-02
  0.67011E-02  0.68977E-02  0.66292E-02  0.58399E-02  0.46014E-02  0.30581E-02
  0.15368E-02  0.16167E-02  0.33161E-02  0.52549E-02  0.72466E-02  0.92183E-02
  0.11055E-01  0.12631E-01  0.13851E-01  0.14627E-01  0.14859E-01  0.14484E-01
  0.13577E-01  0.12375E-01  0.11205E-01  0.10370E-01  0.10070E-01  0.10370E-01
  0.11205E-01  0.12375E-01  0.13577E-01  0.14484E-01  0.14859E-01  0.14627E-01
  0.13851E-01  0.12631E-01  0.11055E-01  0.92183E-02  0.72466E-02  0.52549E-02
  0.33161E-02  0.16167E-02  0.15368E-02  0.30581E-02  0.46013E-02  0.58399E-02
  0.66292E-02  0.68977E-02  0.67011E-02  0.62336E-02  0.57261E-02  0.53039E-02
  0.22063E-02  0.26798E-02  0.28220E-02  0.27699E-02  0.27054E-02  0.27316E-02
  0.28047E-02  0.27689E-02  0.24780E-02  0.19144E-02  0.12780E-02  0.12798E-02
  0.22232E-02  0.34829E-02  0.47925E-02  0.60902E-02  0.74050E-02  0.87669E-02
  0.10142E-01  0.11453E-01  0.12631E-01  0.13635E-01  0.14414E-01  0.14911E-01
  0.15103E-01  0.15045E-01  0.14861E-01  0.14684E-01  0.14614E-01  0.14684E-01
  0.14861E-01  0.15045E-01  0.15103E-01  0.14911E-01  0.14414E-01  0.13635E-01
  0.12631E-01  0.11453E-01  0.10142E-01  0.87669E-02  0.74050E-02  0.60902E-02
  0.47925E-02  0.34829E-02  0.22232E-02  0.12798E-02  0.12779E-02  0.19144E-02
  0.24780E-02  0.27689E-02  0.28047E-02  0.27316E-02  0.27054E-02  0.27699E-02
  0.10709E-02  0.11829E-02  0.99442E-03  0.82907E-03  0.10782E-02  0.14739E-02
  0.17825E-02  0.20433E-02  0.23770E-02  0.28552E-02  0.34736E-02  0.41947E-02
  0.49760E-02  0.57601E-02  0.64870E-02  0.71435E-02  0.77841E-02  0.84831E-02
  0.92743E-02  0.10142E-01  0.11055E-01  0.11981E-01  0.12877E-01  0.13683E-01
  0.14348E-01  0.14852E-01  0.15200E-01  0.15407E-01  0.15475E-01  0.15407E-01
  0.15200E-01  0.14852E-01  0.14348E-01  0.13683E-01  0.12877E-01  0.11981E-01
  0.11055E-01  0.10142E-01  0.92743E-02  0.84831E-02  0.77841E-02  0.71435E-02
  0.64870E-02  0.57601E-02  0.49760E-02  0.41947E-02  0.34736E-02  0.28552E-02
  0.23770E-02  0.20433E-02  0.17825E-02  0.14739E-02  0.10782E-02  0.82907E-03
  0.49581E-03  0.46412E-03  0.10233E-02  0.21065E-02  0.33340E-02  0.44373E-02
  0.52810E-02  0.58869E-02  0.63597E-02  0.67839E-02  0.71846E-02  0.75537E-02
  0.78750E-02  0.81229E-02  0.82702E-02  0.83184E-02  0.83181E-02  0.83490E-02
  0.84831E-02  0.87669E-02  0.92183E-02  0.98230E-02  0.10530E-01  0.11269E-01
  0.11972E-01  0.12594E-01  0.13091E-01  0.13420E-01  0.13535E-01  0.13420E-01
  0.13091E-01  0.12594E-01  0.11972E-01  0.11269E-01  0.10530E-01  0.98230E-02
  0.92183E-02  0.87669E-02  0.84831E-02  0.83490E-02  0.83181E-02  0.83184E-02
  0.82702E-02  0.81229E-02  0.78750E-02  0.75537E-02  0.71846E-02  0.67839E-02
  0.63597E-02  0.58869E-02  0.52810E-02  0.44373E-02  0.33340E-02  0.21065E-02
  0.50241E-03  0.49689E-03  0.17638E-02  0.34525E-02  0.52986E-02  0.70235E-02
  0.84208E-02  0.94254E-02  0.10089E-01  0.10501E-01  0.10723E-01  0.10781E-01
  0.10683E-01  0.10429E-01  0.10032E-01  0.95142E-02  0.89215E-02  0.83181E-02
  0.77841E-02  0.74050E-02  0.72466E-02  0.73260E-02  0.76053E-02  0.80156E-02
  0.84885E-02  0.89649E-02  0.93834E-02  0.96750E-02  0.97803E-02  0.96750E-02
  0.93834E-02  0.89649E-02  0.84885E-02  0.80156E-02  0.76053E-02  0.73260E-02
  0.72466E-02  0.74050E-02  0.77841E-02  0.83181E-02  0.89215E-02  0.95142E-02
  0.10032E-01  0.10429E-01  0.10683E-01  0.10781E-01  0.10723E-01  0.10501E-01
  0.10089E-01  0.94254E-02  0.84208E-02  0.70235E-02  0.52986E-02  0.34525E-02
  0.13940E-02  0.24137E-03  0.18679E-02  0.40995E-02  0.65281E-02  0.88695E-02