       #
       # Generated by the Wannier90 code http://www.wannier.org
       # On 10May2024 at 21:04:43 
       #
CRYSTAL
PRIMVEC
   2.7281430   0.0000000   0.0000000
   0.0000000   2.7281430   0.0000000
   0.0000000   0.0000000   3.7789840
CONVVEC
   2.7281430   0.0000000   0.0000000
   0.0000000   2.7281430   0.0000000
   0.0000000   0.0000000   3.7789840
PRIMCOORD
     2  1
Fe      0.0000000   0.0000000   0.0000000
Pt      1.3640715   1.3640715   1.8894920


BEGIN_BLOCK_DATAGRID_3D
3D_field
BEGIN_DATAGRID_3D_UNKNOWN
    54    54    80
   -2.829185   -2.829185   -3.873459
   5.3552437   0.0000000   0.0000000
   0.0000000   5.3552437   0.0000000
   0.0000000   0.0000000   7.4634934
  0.34501E-02  0.37076E-02  0.33379E-02  0.23972E-02  0.12657E-02  0.44714E-03
  0.20713E-03  0.44748E-03  0.98211E-03  0.15051E-02  0.18807E-02  0.20837E-02
  0.21183E-02  0.19931E-02  0.17269E-02  0.13385E-02  0.85149E-03  0.33441E-03
  0.25235E-03  0.65358E-03  0.98645E-03  0.10136E-02  0.16182E-03  0.22048E-02
  0.58369E-02  0.91481E-02  0.97970E-02  0.64203E-02  0.42018E-03  0.64203E-02
  0.97970E-02  0.91481E-02  0.58369E-02  0.22048E-02  0.16182E-03  0.10136E-02
  0.98645E-03  0.65358E-03  0.25235E-03  0.33441E-03  0.85149E-03  0.13385E-02
  0.17269E-02  0.19931E-02  0.21183E-02  0.20837E-02  0.18807E-02  0.15051E-02
  0.98211E-03  0.44748E-03  0.20713E-03  0.44714E-03  0.12657E-02  0.23972E-02
  0.37076E-02  0.44651E-02  0.44279E-02  0.35518E-02  0.22291E-02  0.10481E-02
  0.41236E-03  0.32961E-03  0.59459E-03  0.93776E-03  0.12022E-02  0.13416E-02
  0.13441E-02  0.12074E-02  0.94157E-03  0.56324E-03  0.15739E-03  0.47247E-03
  0.92650E-03  0.12984E-02  0.15439E-02  0.13959E-02  0.22180E-03  0.26233E-02
  0.67843E-02  0.10460E-01  0.11089E-01  0.72309E-02  0.56906E-03  0.72309E-02
  0.11089E-01  0.10460E-01  0.67843E-02  0.26233E-02  0.22180E-03  0.13959E-02
  0.15439E-02  0.12984E-02  0.92650E-03  0.47247E-03  0.15739E-03  0.56324E-03
  0.94157E-03  0.12074E-02  0.13441E-02  0.13416E-02  0.12022E-02  0.93776E-03
  0.59459E-03  0.32961E-03  0.41236E-03  0.10481E-02  0.22291E-02  0.35518E-02
  0.33379E-02  0.44279E-02  0.46810E-02  0.39795E-02  0.26809E-02  0.13751E-02
  0.50696E-03  0.16446E-03  0.19792E-03  0.36542E-03  0.51223E-03  0.58281E-03
  0.55284E-03  0.41334E-03  0.19161E-03  0.27811E-03  0.70833E-03  0.11851E-02
  0.16080E-02  0.19269E-02  0.20961E-02  0.18587E-02  0.61745E-03  0.22030E-02
  0.62557E-02  0.98173E-02  0.10466E-01  0.68619E-02  0.93536E-03  0.68619E-02
  0.10466E-01  0.98173E-02  0.62557E-02  0.22030E-02  0.61745E-03  0.18587E-02
  0.20961E-02  0.19269E-02  0.16080E-02  0.11851E-02  0.70833E-03  0.27811E-03
  0.19161E-03  0.41334E-03  0.55284E-03  0.58281E-03  0.51223E-03  0.36542E-03
  0.19792E-03  0.16446E-03  0.50696E-03  0.13751E-02  0.26809E-02  0.39795E-02
  0.23972E-02  0.35518E-02  0.39795E-02  0.35193E-02  0.24434E-02  0.12517E-02
  0.35120E-03  0.14125E-03  0.31455E-03  0.34490E-03  0.33538E-03  0.32903E-03
  0.35599E-03  0.45963E-03  0.66903E-03  0.98627E-03  0.13948E-02  0.18376E-02
  0.22266E-02  0.25023E-02  0.26209E-02  0.23847E-02  0.13189E-02  0.10469E-02
  0.44446E-02  0.74884E-02  0.81955E-02  0.54629E-02  0.10683E-02  0.54629E-02
  0.81955E-02  0.74884E-02  0.44446E-02  0.10469E-02  0.13189E-02  0.23847E-02
  0.26209E-02  0.25023E-02  0.22266E-02  0.18376E-02  0.13948E-02  0.98627E-03
  0.66903E-03  0.45963E-03  0.35599E-03  0.32904E-03  0.33538E-03  0.34490E-03
  0.31455E-03  0.14125E-03  0.35120E-03  0.12517E-02  0.24434E-02  0.35193E-02
  0.12657E-02  0.22291E-02  0.26809E-02  0.24434E-02  0.16778E-02  0.73919E-03
  0.61426E-04  0.57235E-03  0.84003E-03  0.95072E-03  0.98290E-03  0.99567E-03
  0.10386E-02  0.11460E-02  0.13336E-02  0.16099E-02  0.19721E-02  0.23763E-02
  0.27380E-02  0.29861E-02  0.30794E-02  0.28957E-02  0.21213E-02  0.43017E-03
  0.20684E-02  0.43911E-02  0.51556E-02  0.35584E-02  0.89825E-03  0.35584E-02
  0.51556E-02  0.43911E-02  0.20684E-02  0.43017E-03  0.21213E-02  0.28957E-02
  0.30794E-02  0.29861E-02  0.27380E-02  0.23763E-02  0.19721E-02  0.16099E-02
  0.13336E-02  0.11460E-02  0.10386E-02  0.99567E-03  0.98290E-03  0.95072E-03
  0.84003E-03  0.57235E-03  0.61426E-04  0.73919E-03  0.16778E-02  0.24434E-02
  0.44714E-03  0.10481E-02  0.13751E-02  0.12517E-02  0.73919E-03  0.51874E-04
  0.60107E-03  0.10871E-02  0.13906E-02  0.15456E-02  0.16009E-02  0.16114E-02
  0.16332E-02  0.17078E-02  0.18549E-02  0.20841E-02  0.23965E-02  0.27599E-02
  0.30989E-02  0.33355E-02  0.34241E-02  0.33010E-02  0.27983E-02  0.17126E-02
  0.11662E-03  0.15387E-02  0.23224E-02  0.17525E-02  0.55661E-03  0.17525E-02
  0.23224E-02  0.15387E-02  0.11662E-03  0.17126E-02  0.27983E-02  0.33010E-02
  0.34241E-02  0.33355E-02  0.30989E-02  0.27599E-02  0.23965E-02  0.20841E-02
  0.18549E-02  0.17078E-02  0.16332E-02  0.16114E-02  0.16009E-02  0.15456E-02
  0.13906E-02  0.10871E-02  0.60107E-03  0.51874E-04  0.73919E-03  0.12517E-02
  0.20713E-03  0.41236E-03  0.50696E-03  0.35120E-03  0.61426E-04  0.60107E-03
  0.11459E-02  0.15893E-02  0.18896E-02  0.20498E-02  0.20985E-02  0.20844E-02
  0.20669E-02  0.20956E-02  0.21962E-02  0.23770E-02  0.26376E-02  0.29557E-02
  0.32718E-02  0.35088E-02  0.36106E-02  0.35379E-02  0.32189E-02  0.25554E-02
  0.15525E-02  0.46033E-03  0.31071E-03  0.44622E-03  0.22795E-03  0.44622E-03
  0.31071E-03  0.46033E-03  0.15525E-02  0.25554E-02  0.32189E-02  0.35379E-02
  0.36106E-02  0.35088E-02  0.32718E-02  0.29557E-02  0.26376E-02  0.23770E-02
  0.21962E-02  0.20956E-02  0.20669E-02  0.20844E-02  0.20985E-02  0.20498E-02
  0.18896E-02  0.15893E-02  0.11459E-02  0.60107E-03  0.61426E-04  0.35120E-03
  0.44748E-03  0.32961E-03  0.16446E-03  0.14125E-03  0.57235E-03  0.10871E-02
  0.15893E-02  0.19985E-02  0.22736E-02  0.24105E-02  0.24317E-02  0.23812E-02
  0.23179E-02  0.22961E-02  0.23465E-02  0.24763E-02  0.26817E-02  0.29483E-02
  0.32352E-02  0.34753E-02  0.36027E-02  0.35748E-02  0.33610E-02  0.29288E-02
  0.22797E-02  0.15104E-02  0.80406E-03  0.30836E-03  0.20906E-04  0.30836E-03
  0.80406E-03  0.15104E-02  0.22797E-02  0.29288E-02  0.33610E-02  0.35748E-02
  0.36027E-02  0.34753E-02  0.32352E-02  0.29483E-02  0.26817E-02  0.24763E-02
  0.23465E-02  0.22961E-02  0.23179E-02  0.23812E-02  0.24317E-02  0.24105E-02
  0.22736E-02  0.19985E-02  0.15893E-02  0.10871E-02  0.57235E-03  0.14125E-03
  0.98211E-03  0.59459E-03  0.19792E-03  0.31455E-03  0.84003E-03  0.13906E-02
  0.18896E-02  0.22736E-02  0.25120E-02  0.26086E-02  0.25898E-02  0.24983E-02
  0.23893E-02  0.23163E-02  0.23127E-02  0.23867E-02  0.25334E-02  0.27431E-02
  0.29909E-02  0.32249E-02  0.33782E-02  0.33969E-02  0.32542E-02  0.29426E-02
  0.24708E-02  0.18767E-02  0.12308E-02  0.60156E-03  0.69559E-04  0.60156E-03
  0.12308E-02  0.18767E-02  0.24708E-02  0.29426E-02  0.32542E-02  0.33969E-02
  0.33782E-02  0.32249E-02  0.29909E-02  0.27431E-02  0.25334E-02  0.23867E-02
  0.23127E-02  0.23163E-02  0.23893E-02  0.24983E-02  0.25898E-02  0.26086E-02
  0.25120E-02  0.22736E-02  0.18896E-02  0.13906E-02  0.84003E-03  0.31455E-03
  0.15051E-02  0.93776E-03  0.36542E-03  0.34490E-03  0.95072E-03  0.15456E-02
  0.20498E-02  0.24105E-02  0.26086E-02  0.26583E-02  0.25942E-02  0.24599E-02
  0.23049E-02  0.21779E-02  0.21135E-02  0.21250E-02  0.22101E-02  0.23610E-02
  0.25609E-02  0.27730E-02  0.29401E-02  0.30053E-02  0.29321E-02  0.27098E-02
  0.23455E-02  0.18592E-02  0.12837E-02  0.65877E-03  0.10630E-03  0.65877E-03
  0.12837E-02  0.18592E-02  0.23455E-02  0.27098E-02  0.29321E-02  0.30053E-02
  0.29401E-02  0.27730E-02  0.25609E-02  0.23610E-02  0.22101E-02  0.21250E-02
  0.21135E-02  0.21779E-02  0.23049E-02  0.24599E-02  0.25942E-02  0.26583E-02
  0.26086E-02  0.24105E-02  0.20498E-02  0.15456E-02  0.95072E-03  0.34490E-03
  0.18807E-02  0.12022E-02  0.51223E-03  0.33538E-03  0.98290E-03  0.16009E-02
  0.20985E-02  0.24317E-02  0.25898E-02  0.25942E-02  0.24847E-02  0.23056E-02
  0.21008E-02  0.19133E-02  0.17795E-02  0.17203E-02  0.17401E-02  0.18315E-02
  0.19797E-02  0.21579E-02  0.23245E-02  0.24294E-02  0.24295E-02  0.23000E-02
  0.20361E-02  0.16492E-02  0.11626E-02  0.61097E-03  0.13897E-03  0.61097E-03
  0.11626E-02  0.16492E-02  0.20361E-02  0.23000E-02  0.24295E-02  0.24294E-02
  0.23245E-02  0.21579E-02  0.19797E-02  0.18315E-02  0.17401E-02  0.17203E-02
  0.17795E-02  0.19133E-02  0.21008E-02  0.23056E-02  0.24847E-02  0.25942E-02
  0.25898E-02  0.24317E-02  0.20985E-02  0.16009E-02  0.98290E-03  0.33538E-03
  0.20837E-02  0.13416E-02  0.58281E-03  0.32904E-03  0.99567E-03  0.16114E-02
  0.20844E-02  0.23812E-02  0.24983E-02  0.24599E-02  0.23056E-02  0.20780E-02
  0.18173E-02  0.15638E-02  0.13562E-02  0.12221E-02  0.11716E-02  0.12000E-02
  0.12946E-02  0.14359E-02  0.15946E-02  0.17300E-02  0.17981E-02  0.17631E-02
  0.16076E-02  0.13339E-02  0.96114E-03  0.52574E-03  0.18945E-03  0.52575E-03
  0.96114E-03  0.13339E-02  0.16076E-02  0.17631E-02  0.17981E-02  0.17300E-02
  0.15946E-02  0.14359E-02  0.12946E-02  0.12000E-02  0.11716E-02  0.12221E-02
  0.13562E-02  0.15638E-02  0.18173E-02  0.20780E-02  0.23056E-02  0.24599E-02
  0.24983E-02  0.23812E-02  0.20844E-02  0.16114E-02  0.99567E-03  0.32904E-03
  0.21183E-02  0.13441E-02  0.55284E-03  0.35599E-03  0.10386E-02  0.16332E-02
  0.20669E-02  0.23179E-02  0.23893E-02  0.23049E-02  0.21008E-02  0.18173E-02
  0.14956E-02  0.11795E-02  0.91304E-03  0.72634E-03  0.62095E-03  0.58202E-03
  0.60493E-03  0.69272E-03  0.83187E-03  0.98605E-03  0.11090E-02  0.11602E-02
  0.11148E-02  0.96739E-03  0.73165E-03  0.44761E-03  0.26507E-03  0.44761E-03
  0.73165E-03  0.96739E-03  0.11148E-02  0.11602E-02  0.11090E-02  0.98605E-03
  0.83187E-03  0.69272E-03  0.60493E-03  0.58202E-03  0.62095E-03  0.72634E-03
  0.91304E-03  0.11795E-02  0.14956E-02  0.18173E-02  0.21008E-02  0.23049E-02
  0.23893E-02  0.23179E-02  0.20669E-02  0.16332E-02  0.10386E-02  0.35599E-03
  0.19931E-02  0.12074E-02  0.41334E-03  0.45963E-03  0.11460E-02  0.17078E-02
  0.20956E-02  0.22961E-02  0.23163E-02  0.21779E-02  0.19133E-02  0.15638E-02
  0.11795E-02  0.82290E-03  0.57691E-03  0.50699E-03  0.54101E-03  0.55732E-03
  0.50878E-03  0.40662E-03  0.31726E-03  0.34529E-03  0.46592E-03  0.58021E-03
  0.63777E-03  0.62111E-03  0.53604E-03  0.41947E-03  0.35717E-03  0.41947E-03
  0.53604E-03  0.62111E-03  0.63777E-03  0.58021E-03  0.46592E-03  0.34529E-03
  0.31726E-03  0.40662E-03  0.50878E-03  0.55732E-03  0.54101E-03  0.50699E-03
  0.57691E-03  0.82290E-03  0.11795E-02  0.15638E-02  0.19133E-02  0.21779E-02
  0.23163E-02  0.22961E-02  0.20956E-02  0.17078E-02  0.11460E-02  0.45963E-03
  0.17269E-02  0.94157E-03  0.19161E-03  0.66903E-03  0.13336E-02  0.18549E-02
  0.21962E-02  0.23465E-02  0.23127E-02  0.21135E-02  0.17795E-02  0.13562E-02
  0.91304E-03  0.57691E-03  0.56321E-03  0.78566E-03  0.10009E-02  0.11209E-02
  0.11208E-02  0.10084E-02  0.81812E-03  0.60143E-03  0.41964E-03  0.34086E-03
  0.37078E-03  0.42574E-03  0.45381E-03  0.45425E-03  0.44981E-03  0.45425E-03
  0.45381E-03  0.42574E-03  0.37078E-03  0.34086E-03  0.41964E-03  0.60143E-03
  0.81812E-03  0.10084E-02  0.11208E-02  0.11209E-02  0.10009E-02  0.78566E-03
  0.56321E-03  0.57691E-03  0.91304E-03  0.13562E-02  0.17795E-02  0.21135E-02
  0.23127E-02  0.23465E-02  0.21962E-02  0.18549E-02  0.13336E-02  0.66903E-03
  0.13385E-02  0.56324E-03  0.27811E-03  0.98627E-03  0.16099E-02  0.20841E-02
  0.23770E-02  0.24763E-02  0.23867E-02  0.21250E-02  0.17203E-02  0.12221E-02
  0.72634E-03  0.50699E-03  0.78566E-03  0.11689E-02  0.14805E-02  0.16694E-02
  0.17145E-02  0.16221E-02  0.14266E-02  0.11761E-02  0.91755E-03  0.69392E-03
  0.54749E-03  0.49622E-03  0.50369E-03  0.52155E-03  0.52876E-03  0.52155E-03
  0.50369E-03  0.49622E-03  0.54749E-03  0.69392E-03  0.91755E-03  0.11761E-02
  0.14266E-02  0.16221E-02  0.17145E-02  0.16694E-02  0.14805E-02  0.11689E-02
  0.78566E-03  0.50699E-03  0.72634E-03  0.12221E-02  0.17203E-02  0.21250E-02
  0.23867E-02  0.24763E-02  0.23770E-02  0.20841E-02  0.16099E-02  0.98627E-03
  0.85149E-03  0.15739E-03  0.70833E-03  0.13948E-02  0.19721E-02  0.23965E-02
  0.26376E-02  0.26817E-02  0.25334E-02  0.22101E-02  0.17401E-02  0.11716E-02
  0.62095E-03  0.54101E-03  0.10009E-02  0.14805E-02  0.18589E-02  0.20974E-02
  0.21785E-02  0.21080E-02  0.19164E-02  0.16472E-02  0.13445E-02  0.10513E-02
  0.81222E-03  0.66221E-03  0.59890E-03  0.58407E-03  0.58298E-03  0.58407E-03
  0.59890E-03  0.66221E-03  0.81222E-03  0.10513E-02  0.13445E-02  0.16472E-02
  0.19164E-02  0.21080E-02  0.21785E-02  0.20975E-02  0.18589E-02  0.14805E-02
  0.10009E-02  0.54101E-03  0.62095E-03  0.11716E-02  0.17401E-02  0.22101E-02
  0.25334E-02  0.26817E-02  0.26376E-02  0.23965E-02  0.19721E-02  0.13948E-02
  0.33441E-03  0.47247E-03  0.11851E-02  0.18376E-02  0.23763E-02  0.27599E-02
  0.29557E-02  0.29483E-02  0.27431E-02  0.23610E-02  0.18315E-02  0.12000E-02
  0.58202E-03  0.55732E-03  0.11209E-02  0.16694E-02  0.20974E-02  0.23723E-02
  0.24812E-02  0.24302E-02  0.22446E-02  0.19620E-02  0.16259E-02  0.12838E-02
  0.98645E-03  0.77537E-03  0.66040E-03  0.61455E-03  0.60374E-03  0.61455E-03
  0.66040E-03  0.77537E-03  0.98645E-03  0.12838E-02  0.16259E-02  0.19620E-02
  0.22446E-02  0.24302E-02  0.24812E-02  0.23723E-02  0.20975E-02  0.16694E-02
  0.11209E-02  0.55732E-03  0.58202E-03  0.12000E-02  0.18315E-02  0.23610E-02
  0.27431E-02  0.29483E-02  0.29557E-02  0.27599E-02  0.23763E-02  0.18376E-02
  0.25235E-03  0.92650E-03  0.16080E-02  0.22266E-02  0.27380E-02  0.30989E-02
  0.32718E-02  0.32352E-02  0.29909E-02  0.25609E-02  0.19797E-02  0.12946E-02
  0.60493E-03  0.50878E-03  0.11208E-02  0.17145E-02  0.21785E-02  0.24812E-02
  0.26118E-02  0.25753E-02  0.23928E-02  0.20984E-02  0.17370E-02  0.13607E-02
  0.10256E-02  0.78063E-03  0.64542E-03  0.59394E-03  0.58296E-03  0.59394E-03
  0.64542E-03  0.78063E-03  0.10256E-02  0.13607E-02  0.17370E-02  0.20984E-02
  0.23928E-02  0.25753E-02  0.26118E-02  0.24812E-02  0.21785E-02  0.17145E-02
  0.11208E-02  0.50878E-03  0.60493E-03  0.12946E-02  0.19797E-02  0.25609E-02
  0.29909E-02  0.32352E-02  0.32718E-02  0.30989E-02  0.27380E-02  0.22266E-02
  0.65358E-03  0.12984E-02  0.19269E-02  0.25023E-02  0.29861E-02  0.33355E-02
  0.35088E-02  0.34753E-02  0.32249E-02  0.27730E-02  0.21579E-02  0.14359E-02
  0.69272E-03  0.40662E-03  0.10084E-02  0.16221E-02  0.21080E-02  0.24302E-02
  0.25753E-02  0.25456E-02  0.23589E-02  0.20494E-02  0.16647E-02  0.12613E-02
  0.90210E-03  0.65028E-03  0.53609E-03  0.51234E-03  0.51194E-03  0.51234E-03
  0.53609E-03  0.65028E-03  0.90210E-03  0.12613E-02  0.16647E-02  0.20494E-02
  0.23589E-02  0.25456E-02  0.25753E-02  0.24302E-02  0.21080E-02  0.16221E-02
  0.10084E-02  0.40662E-03  0.69272E-03  0.14359E-02  0.21579E-02  0.27730E-02
  0.32249E-02  0.34753E-02  0.35088E-02  0.33355E-02  0.29861E-02  0.25023E-02
  0.98645E-03  0.15439E-02  0.20961E-02  0.26209E-02  0.30794E-02  0.34241E-02
  0.36106E-02  0.36027E-02  0.33782E-02  0.29401E-02  0.23245E-02  0.15946E-02
  0.83187E-03  0.31726E-03  0.81812E-03  0.14266E-02  0.19164E-02  0.22446E-02
  0.23928E-02  0.23589E-02  0.21576E-02  0.18223E-02  0.14038E-02  0.96740E-03
  0.59538E-03  0.39403E-03  0.37665E-03  0.39051E-03  0.38903E-03  0.39051E-03
  0.37665E-03  0.39403E-03  0.59538E-03  0.96740E-03  0.14038E-02  0.18223E-02
  0.21576E-02  0.23589E-02  0.23928E-02  0.22446E-02  0.19164E-02  0.14266E-02
  0.81812E-03  0.31726E-03  0.83187E-03  0.15946E-02  0.23245E-02  0.29401E-02
  0.33782E-02  0.36027E-02  0.36106E-02  0.34241E-02  0.30794E-02  0.26209E-02
  0.10136E-02  0.13959E-02  0.18587E-02  0.23847E-02  0.28957E-02  0.33010E-02
  0.35379E-02  0.35748E-02  0.33969E-02  0.30053E-02  0.24294E-02  0.17300E-02
  0.98605E-03  0.34529E-03  0.60143E-03  0.11761E-02  0.16472E-02  0.19620E-02
  0.20984E-02  0.20494E-02  0.18223E-02  0.14444E-02  0.96936E-03  0.48292E-03
  0.20771E-03  0.38029E-03  0.46246E-03  0.36739E-03  0.25725E-03  0.36739E-03
  0.46246E-03  0.38029E-03  0.20771E-03  0.48293E-03  0.96936E-03  0.14444E-02
  0.18223E-02  0.20494E-02  0.20984E-02  0.19620E-02  0.16472E-02  0.11761E-02
  0.60143E-03  0.34529E-03  0.98605E-03  0.17300E-02  0.24294E-02  0.30053E-02
  0.33969E-02  0.35748E-02  0.35379E-02  0.33010E-02  0.28957E-02  0.23847E-02
  0.16182E-03  0.22180E-03  0.61745E-03  0.13189E-02  0.21213E-02  0.27983E-02
  0.32189E-02  0.33610E-02  0.32542E-02  0.29321E-02  0.24295E-02  0.17981E-02
  0.11090E-02  0.46592E-03  0.41964E-03  0.91755E-03  0.13445E-02  0.16259E-02
  0.17370E-02  0.16647E-02  0.14038E-02  0.96936E-03  0.41488E-03  0.18177E-03
  0.65823E-03  0.91934E-03  0.88491E-03  0.57714E-03  0.26350E-03  0.57714E-03
  0.88491E-03  0.91934E-03  0.65823E-03  0.18177E-03  0.41488E-03  0.96936E-03
  0.14038E-02  0.16647E-02  0.17370E-02  0.16259E-02  0.13445E-02  0.91755E-03
  0.41964E-03  0.46592E-03  0.11090E-02  0.17981E-02  0.24295E-02  0.29321E-02
  0.32542E-02  0.33610E-02  0.32189E-02  0.27983E-02  0.21213E-02  0.13189E-02
  0.22048E-02  0.26233E-02  0.22030E-02  0.10469E-02  0.43017E-03  0.17126E-02
  0.25554E-02  0.29288E-02  0.29426E-02  0.27098E-02  0.23000E-02  0.17631E-02
  0.11602E-02  0.58021E-03  0.34086E-03  0.69392E-03  0.10513E-02  0.12838E-02
  0.13607E-02  0.12613E-02  0.96740E-03  0.48292E-03  0.18177E-03  0.81459E-03
  0.13222E-02  0.15316E-02  0.13595E-02  0.85221E-03  0.38206E-03  0.85221E-03
  0.13595E-02  0.15316E-02  0.13222E-02  0.81459E-03  0.18177E-03  0.48292E-03
  0.96740E-03  0.12613E-02  0.13607E-02  0.12838E-02  0.10513E-02  0.69392E-03
  0.34086E-03  0.58021E-03  0.11602E-02  0.17631E-02  0.23000E-02  0.27098E-02
  0.29426E-02  0.29288E-02  0.25554E-02  0.17126E-02  0.43017E-03  0.10469E-02
  0.58369E-02  0.67843E-02  0.62557E-02  0.44446E-02  0.20684E-02  0.11662E-03
  0.15525E-02  0.22797E-02  0.24708E-02  0.23455E-02  0.20361E-02  0.16076E-02
  0.11148E-02  0.63777E-03  0.37078E-03  0.54749E-03  0.81222E-03  0.98645E-03
  0.10256E-02  0.90210E-03  0.59538E-03  0.20771E-03  0.65823E-03  0.13222E-02
  0.18221E-02  0.19729E-02  0.16888E-02  0.10336E-02  0.44423E-03  0.10336E-02
  0.16888E-02  0.19729E-02  0.18221E-02  0.13222E-02  0.65823E-03  0.20771E-03
  0.59538E-03  0.90210E-03  0.10256E-02  0.98645E-03  0.81222E-03  0.54749E-03
  0.37078E-03  0.63777E-03  0.11148E-02  0.16076E-02  0.20361E-02  0.23455E-02
  0.24708E-02  0.22797E-02  0.15525E-02  0.11662E-03  0.20684E-02  0.44446E-02
  0.91481E-02  0.10460E-01  0.98173E-02  0.74884E-02  0.43911E-02  0.15387E-02
  0.46033E-03  0.15104E-02  0.18767E-02  0.18592E-02  0.16492E-02  0.13339E-02
  0.96739E-03  0.62111E-03  0.42574E-03  0.49622E-03  0.66221E-03  0.77536E-03
  0.78063E-03  0.65028E-03  0.39403E-03  0.38029E-03  0.91934E-03  0.15316E-02
  0.19729E-02  0.20652E-02  0.17306E-02  0.10353E-02  0.40197E-03  0.10353E-02
  0.17306E-02  0.20652E-02  0.19729E-02  0.15316E-02  0.91934E-03  0.38029E-03
  0.39403E-03  0.65028E-03  0.78063E-03  0.77536E-03  0.66221E-03  0.49622E-03
  0.42574E-03  0.62111E-03  0.96739E-03  0.13339E-02  0.16492E-02  0.18592E-02
  0.18767E-02  0.15104E-02  0.46033E-03  0.15387E-02  0.43911E-02  0.74884E-02
  0.97970E-02  0.11089E-01  0.10466E-01  0.81955E-02  0.51556E-02  0.23224E-02
  0.31071E-03  0.80406E-03  0.12308E-02  0.12837E-02  0.11626E-02  0.96114E-03
  0.73165E-03  0.53604E-03  0.45381E-03  0.50369E-03  0.59890E-03  0.66040E-03
  0.64542E-03  0.53609E-03  0.37665E-03  0.46246E-03  0.88491E-03  0.13595E-02
  0.16888E-02  0.17306E-02  0.14284E-02  0.83700E-03  0.28300E-03  0.83700E-03
  0.14284E-02  0.17306E-02  0.16888E-02  0.13595E-02  0.88491E-03  0.46246E-03
  0.37665E-03  0.53609E-03  0.64542E-03  0.66040E-03  0.59890E-03  0.50369E-03
  0.45381E-03  0.53604E-03  0.73165E-03  0.96114E-03  0.11626E-02  0.12837E-02
  0.12308E-02  0.80406E-03  0.31071E-03  0.23224E-02  0.51556E-02  0.81955E-02
  0.64203E-02  0.72309E-02  0.68619E-02  0.54629E-02  0.35584E-02  0.17525E-02
  0.44622E-03  0.30836E-03  0.60156E-03  0.65877E-03  0.61097E-03  0.52574E-03
  0.44761E-03  0.41947E-03  0.45425E-03  0.52155E-03  0.58407E-03  0.61455E-03
  0.59394E-03  0.51234E-03  0.39051E-03  0.36739E-03  0.57714E-03  0.85221E-03
  0.10336E-02  0.10353E-02  0.83700E-03  0.47934E-03  0.13914E-03  0.47934E-03
  0.83700E-03  0.10353E-02  0.10336E-02  0.85221E-03  0.57714E-03  0.36739E-03
  0.39051E-03  0.51234E-03  0.59394E-03  0.61455E-03  0.58407E-03  0.52155E-03
  0.45425E-03  0.41947E-03  0.44761E-03  0.52575E-03  0.61097E-03  0.65877E-03
  0.60156E-03  0.30836E-03  0.44622E-03  0.17525E-02  0.35584E-02  0.54629E-02
  0.42018E-03  0.56906E-03  0.93536E-03  0.10683E-02  0.89825E-03  0.55661E-03
  0.22795E-03  0.20906E-04  0.69559E-04  0.10630E-03  0.13897E-03  0.18945E-03
  0.26507E-03  0.35717E-03  0.44981E-03  0.52876E-03  0.58298E-03  0.60374E-03
  0.58296E-03  0.51194E-03  0.38903E-03  0.25725E-03  0.26350E-03  0.38206E-03
  0.44423E-03  0.40196E-03  0.28300E-03  0.13914E-03  0.19880E-08  0.13914E-03
  0.28300E-03  0.40197E-03  0.44423E-03  0.38206E-03  0.26350E-03  0.25725E-03
  0.38903E-03  0.51194E-03  0.58296E-03  0.60374E-03  0.58298E-03  0.52876E-03
  0.44981E-03  0.35717E-03  0.26507E-03  0.18945E-03  0.13897E-03  0.10630E-03
  0.69559E-04  0.20906E-04  0.22795E-03  0.55661E-03  0.89825E-03  0.10683E-02
  0.64203E-02  0.72309E-02  0.68619E-02  0.54629E-02  0.35584E-02  0.17525E-02
  0.44622E-03  0.30836E-03  0.60156E-03  0.65877E-03  0.61097E-03  0.52574E-03
  0.44761E-03  0.41947E-03  0.45425E-03  0.52155E-03  0.58407E-03  0.61455E-03
  0.59394E-03  0.51234E-03  0.39051E-03  0.36739E-03  0.57714E-03  0.85221E-03
  0.10336E-02  0.10353E-02  0.83700E-03  0.47934E-03  0.13914E-03  0.47934E-03
  0.83700E-03  0.10353E-02  0.10336E-02  0.85221E-03  0.57714E-03  0.36739E-03
  0.39051E-03  0.51234E-03  0.59394E-03  0.61455E-03  0.58407E-03  0.52155E-03
  0.45425E-03  0.41947E-03  0.44761E-03  0.52574E-03  0.61097E-03  0.65877E-03
  0.60156E-03  0.30836E-03  0.44622E-03  0.17525E-02  0.35584E-02  0.54629E-02
  0.97970E-02  0.11089E-01  0.10466E-01  0.81955E-02  0.51556E-02  0.23224E-02
  0.31071E-03  0.80406E-03  0.12308E-02  0.12837E-02  0.11626E-02  0.96114E-03
  0.73165E-03  0.53604E-03  0.45381E-03  0.50369E-03  0.59890E-03  0.66040E-03
  0.64542E-03  0.53609E-03  0.37665E-03  0.46246E-03  0.88491E-03  0.13595E-02
  0.16888E-02  0.17306E-02  0.14284E-02  0.83700E-03  0.28300E-03  0.83700E-03
  0.14284E-02  0.17306E-02  0.16888E-02  0.13595E-02  0.88491E-03  0.46246E-03
  0.37665E-03  0.53609E-03  0.64542E-03  0.66040E-03  0.59890E-03  0.50369E-03
  0.45381E-03  0.53604E-03  0.73165E-03  0.96114E-03  0.11626E-02  0.12837E-02
  0.12308E-02  0.80406E-03  0.31071E-03  0.23224E-02  0.51556E-02  0.81955E-02
  0.91481E-02  0.10460E-01  0.98173E-02  0.74884E-02  0.43911E-02  0.15387E-02
  0.46033E-03  0.15104E-02  0.18767E-02  0.18592E-02  0.16492E-02  0.13339E-02
  0.96739E-03  0.62111E-03  0.42574E-03  0.49622E-03  0.66221E-03  0.77537E-03
  0.78063E-03  0.65028E-03  0.39403E-03  0.38029E-03  0.91934E-03  0.15316E-02
  0.19729E-02  0.20652E-02  0.17306E-02  0.10353E-02  0.40197E-03  0.10353E-02
  0.17306E-02  0.20652E-02  0.19729E-02  0.15316E-02  0.91934E-03  0.38029E-03
  0.39403E-03  0.65028E-03  0.78063E-03  0.77537E-03  0.66221E-03  0.49622E-03
  0.42574E-03  0.62111E-03  0.96739E-03  0.13339E-02  0.16492E-02  0.18592E-02
  0.18767E-02  0.15104E-02  0.46033E-03  0.15387E-02  0.43911E-02  0.74884E-02
  0.58369E-02  0.67843E-02  0.62557E-02  0.44446E-02  0.20684E-02  0.11662E-03
  0.15525E-02  0.22797E-02  0.24708E-02  0.23455E-02  0.20361E-02  0.16076E-02
  0.11148E-02  0.63777E-03  0.37078E-03  0.54749E-03  0.81222E-03  0.98645E-03
  0.10256E-02  0.90210E-03  0.59538E-03  0.20771E-03  0.65823E-03  0.13222E-02
  0.18221E-02  0.19729E-02  0.16888E-02  0.10336E-02  0.44423E-03  0.10336E-02
  0.16888E-02  0.19729E-02  0.18221E-02  0.13222E-02  0.65823E-03  0.20771E-03
  0.59538E-03  0.90210E-03  0.10256E-02  0.98645E-03  0.81222E-03  0.54749E-03
  0.37078E-03  0.63777E-03  0.11148E-02  0.16076E-02  0.20361E-02  0.23455E-02
  0.24708E-02  0.22797E-02  0.15525E-02  0.11662E-03  0.20684E-02  0.44446E-02
  0.22048E-02  0.26233E-02  0.22030E-02  0.10469E-02  0.43017E-03  0.17126E-02
  0.25554E-02  0.29288E-02  0.29426E-02  0.27098E-02  0.23000E-02  0.17631E-02
  0.11602E-02  0.58021E-03  0.34086E-03  0.69392E-03  0.10513E-02  0.12838E-02
  0.13607E-02  0.12613E-02  0.96740E-03  0.48292E-03  0.18177E-03  0.81459E-03
  0.13222E-02  0.15316E-02  0.13595E-02  0.85221E-03  0.38206E-03  0.85221E-03
  0.13595E-02  0.15316E-02  0.13222E-02  0.81459E-03  0.18177E-03  0.48292E-03
  0.96740E-03  0.12613E-02  0.13607E-02  0.12838E-02  0.10513E-02  0.69392E-03
  0.34086E-03  0.58021E-03  0.11602E-02  0.17631E-02  0.23000E-02  0.27098E-02
  0.29426E-02  0.29288E-02  0.25554E-02  0.17126E-02  0.43017E-03  0.10469E-02
  0.16182E-03  0.22180E-03  0.61745E-03  0.13189E-02  0.21213E-02  0.27983E-02
  0.32189E-02  0.33610E-02  0.32542E-02  0.29321E-02  0.24295E-02  0.17981E-02
  0.11090E-02  0.46592E-03  0.41964E-03  0.91755E-03  0.13445E-02  0.16259E-02
  0.17370E-02  0.16647E-02  0.14038E-02  0.96936E-03  0.41488E-03  0.18177E-03
  0.65823E-03  0.91934E-03  0.88491E-03  0.57714E-03  0.26350E-03  0.57714E-03
  0.88491E-03  0.91934E-03  0.65823E-03  0.18177E-03  0.41488E-03  0.96936E-03
  0.14038E-02  0.16647E-02  0.17370E-02  0.16259E-02  0.13445E-02  0.91755E-03
  0.41964E-03  0.46592E-03  0.11090E-02  0.17981E-02  0.24295E-02  0.29321E-02
  0.32542E-02  0.33610E-02  0.32189E-02  0.27983E-02  0.21213E-02  0.13189E-02
  0.10136E-02  0.13959E-02  0.18587E-02  0.23847E-02  0.28957E-02  0.33010E-02
  0.35379E-02  0.35748E-02  0.33969E-02  0.30053E-02  0.24294E-02  0.17300E-02
  0.98605E-03  0.34529E-03  0.60143E-03  0.11761E-02  0.16472E-02  0.19620E-02
  0.20984E-02  0.20494E-02  0.18223E-02  0.14444E-02  0.96936E-03  0.48292E-03
  0.20771E-03  0.38029E-03  0.46246E-03  0.36739E-03  0.25725E-03  0.36739E-03
  0.46246E-03  0.38029E-03  0.20771E-03  0.48292E-03  0.96936E-03  0.14444E-02
  0.18223E-02  0.20494E-02  0.20984E-02  0.19620E-02  0.16472E-02  0.11761E-02
  0.60143E-03  0.34529E-03  0.98605E-03  0.17300E-02  0.24294E-02  0.30053E-02
  0.33969E-02  0.35748E-02  0.35379E-02  0.33010E-02  0.28957E-02  0.23847E-02
  0.98645E-03  0.15439E-02  0.20961E-02  0.26209E-02  0.30794E-02  0.34241E-02
  0.36106E-02  0.36027E-02  0.33782E-02  0.29401E-02  0.23245E-02  0.15946E-02
  0.83187E-03  0.31726E-03  0.81812E-03  0.14266E-02  0.19164E-02  0.22446E-02
  0.23928E-02  0.23589E-02  0.21576E-02  0.18223E-02  0.14038E-02  0.96740E-03
  0.59538E-03  0.39403E-03  0.37665E-03  0.39051E-03  0.38903E-03  0.39051E-03
  0.37665E-03  0.39403E-03  0.59538E-03  0.96740E-03  0.14038E-02  0.18223E-02
  0.21576E-02  0.23589E-02  0.23928E-02  0.22446E-02  0.19164E-02  0.14266E-02
  0.81812E-03  0.31726E-03  0.83187E-03  0.15946E-02  0.23245E-02  0.29401E-02
  0.33782E-02  0.36027E-02  0.36106E-02  0.34241E-02  0.30794E-02  0.26209E-02
  0.65358E-03  0.12984E-02  0.19269E-02  0.25023E-02  0.29861E-02  0.33355E-02
  0.35088E-02  0.34753E-02  0.32249E-02  0.27730E-02  0.21579E-02  0.14359E-02
  0.69272E-03  0.40662E-03  0.10084E-02  0.16221E-02  0.21080E-02  0.24302E-02
  0.25753E-02  0.25456E-02  0.23589E-02  0.20494E-02  0.16647E-02  0.12613E-02
  0.90210E-03  0.65028E-03  0.53609E-03  0.51234E-03  0.51194E-03  0.51234E-03
  0.53609E-03  0.65028E-03  0.90210E-03  0.12613E-02  0.16647E-02  0.20494E-02
  0.23589E-02  0.25456E-02  0.25753E-02  0.24302E-02  0.21080E-02  0.16221E-02
  0.10084E-02  0.40662E-03  0.69272E-03  0.14359E-02  0.21579E-02  0.27730E-02
  0.32249E-02  0.34753E-02  0.35088E-02  0.33355E-02  0.29861E-02  0.25023E-02
  0.25235E-03  0.92650E-03  0.16080E-02  0.22266E-02  0.27380E-02  0.30989E-02
  0.32718E-02  0.32352E-02  0.29909E-02  0.25609E-02  0.19797E-02  0.12946E-02
  0.60493E-03  0.50878E-03  0.11208E-02  0.17145E-02  0.21785E-02  0.24812E-02
  0.26118E-02  0.25753E-02  0.23928E-02  0.20984E-02  0.17370E-02  0.13607E-02
  0.10256E-02  0.78063E-03  0.64542E-03  0.59394E-03  0.58296E-03  0.59394E-03
  0.64542E-03  0.78063E-03  0.10256E-02  0.13607E-02  0.17370E-02  0.20984E-02
  0.23928E-02  0.25753E-02  0.26118E-02  0.24812E-02  0.21785E-02  0.17145E-02
  0.11208E-02  0.50878E-03  0.60493E-03  0.12946E-02  0.19797E-02  0.25609E-02
  0.29909E-02  0.32352E-02  0.32718E-02  0.30989E-02  0.27380E-02  0.22266E-02
  0.33441E-03  0.47247E-03  0.11851E-02  0.18376E-02  0.23763E-02  0.27599E-02
  0.29557E-02  0.29483E-02  0.27431E-02  0.23610E-02  0.18315E-02  0.12000E-02
  0.58202E-03  0.55732E-03  0.11209E-02  0.16694E-02  0.20974E-02  0.23723E-02
  0.24812E-02  0.24302E-02  0.22446E-02  0.19620E-02  0.16259E-02  0.12838E-02
  0.98645E-03  0.77537E-03  0.66040E-03  0.61455E-03  0.60374E-03  0.61455E-03
  0.66040E-03  0.77537E-03  0.98645E-03  0.12838E-02  0.16259E-02  0.19620E-02
  0.22446E-02  0.24302E-02  0.24812E-02  0.23723E-02  0.20975E-02  0.16694E-02
  0.11209E-02  0.55732E-03  0.58202E-03  0.12000E-02  0.18315E-02  0.23610E-02
  0.27431E-02  0.29483E-02  0.29557E-02  0.27599E-02  0.23763E-02  0.18376E-02
  0.85149E-03  0.15739E-03  0.70833E-03  0.13948E-02  0.19721E-02  0.23965E-02
  0.26376E-02  0.26817E-02  0.25334E-02  0.22101E-02  0.17401E-02  0.11716E-02
  0.62095E-03  0.54101E-03  0.10009E-02  0.14805E-02  0.18589E-02  0.20974E-02
  0.21785E-02  0.21080E-02  0.19164E-02  0.16472E-02  0.13445E-02  0.10513E-02
  0.81222E-03  0.66221E-03  0.59890E-03  0.58407E-03  0.58298E-03  0.58407E-03
  0.59890E-03  0.66221E-03  0.81222E-03  0.10513E-02  0.13445E-02  0.16472E-02
  0.19164E-02  0.21080E-02  0.21785E-02  0.20975E-02  0.18589E-02  0.14805E-02
  0.10009E-02  0.54101E-03  0.62095E-03  0.11716E-02  0.17401E-02  0.22101E-02
  0.25334E-02  0.26817E-02  0.26376E-02  0.23965E-02  0.19721E-02  0.13948E-02
  0.13385E-02  0.56324E-03  0.27811E-03  0.98627E-03  0.16099E-02  0.20841E-02