       #
       # Generated by the Wannier90 code http://www.wannier.org
       # On 10May2024 at 21:04:43 
       #
CRYSTAL
PRIMVEC
   2.7281430   0.0000000   0.0000000
   0.0000000   2.7281430   0.0000000
   0.0000000   0.0000000   3.7789840
CONVVEC
   2.7281430   0.0000000   0.0000000
   0.0000000   2.7281430   0.0000000
   0.0000000   0.0000000   3.7789840
PRIMCOORD
     2  1
Fe      0.0000000   0.0000000   0.0000000
Pt      1.3640715   1.3640715   1.8894920


BEGIN_BLOCK_DATAGRID_3D
3D_field
BEGIN_DATAGRID_3D_UNKNOWN
    54    54    80
   -2.829185   -2.829185   -3.873459
   5.3552437   0.0000000   0.0000000
   0.0000000   5.3552437   0.0000000
   0.0000000   0.0000000   7.4634934
  0.30310E-01  0.20984E-01  0.86775E-02  0.27112E-02  0.61023E-02  0.54633E-02
  0.31963E-02  0.17278E-02  0.14923E-02  0.15823E-02  0.13682E-02  0.87961E-03
  0.84325E-03  0.15990E-02  0.26167E-02  0.36636E-02  0.45327E-02  0.50570E-02
  0.51132E-02  0.45416E-02  0.31823E-02  0.11307E-02  0.12825E-02  0.29638E-02
  0.34313E-02  0.26890E-02  0.17291E-02  0.19720E-02  0.23422E-02  0.19720E-02
  0.17292E-02  0.26890E-02  0.34313E-02  0.29638E-02  0.12825E-02  0.11307E-02
  0.31823E-02  0.45416E-02  0.51132E-02  0.50570E-02  0.45327E-02  0.36636E-02
  0.26167E-02  0.15990E-02  0.84325E-03  0.87961E-03  0.13682E-02  0.15823E-02
  0.14923E-02  0.17278E-02  0.31963E-02  0.54633E-02  0.61023E-02  0.27112E-02
  0.20984E-01  0.88723E-02  0.54822E-02  0.13484E-01  0.14436E-01  0.10133E-01
  0.46607E-02  0.98740E-03  0.89342E-03  0.14064E-02  0.18739E-02  0.25684E-02
  0.33872E-02  0.42563E-02  0.51805E-02  0.60814E-02  0.67834E-02  0.71285E-02
  0.69961E-02  0.62203E-02  0.46203E-02  0.22309E-02  0.77956E-03  0.32518E-02
  0.50846E-02  0.60750E-02  0.64191E-02  0.64222E-02  0.63779E-02  0.64222E-02
  0.64191E-02  0.60750E-02  0.50846E-02  0.32518E-02  0.77956E-03  0.22309E-02
  0.46203E-02  0.62203E-02  0.69961E-02  0.71285E-02  0.67834E-02  0.60814E-02
  0.51805E-02  0.42563E-02  0.33872E-02  0.25684E-02  0.18739E-02  0.14064E-02
  0.89342E-03  0.98740E-03  0.46607E-02  0.10133E-01  0.14436E-01  0.13484E-01
  0.86775E-02  0.54822E-02  0.17112E-01  0.22522E-01  0.20036E-01  0.12645E-01
  0.48967E-02  0.41955E-03  0.28201E-02  0.38468E-02  0.45609E-02  0.53229E-02
  0.60835E-02  0.68265E-02  0.75941E-02  0.83262E-02  0.88589E-02  0.90451E-02
  0.87735E-02  0.78859E-02  0.62004E-02  0.37069E-02  0.82347E-03  0.25958E-02
  0.55205E-02  0.81794E-02  0.10468E-01  0.12101E-01  0.12704E-01  0.12101E-01
  0.10468E-01  0.81794E-02  0.55205E-02  0.25958E-02  0.82347E-03  0.37069E-02
  0.62004E-02  0.78859E-02  0.87735E-02  0.90451E-02  0.88589E-02  0.83262E-02
  0.75941E-02  0.68265E-02  0.60835E-02  0.53229E-02  0.45609E-02  0.38468E-02
  0.28201E-02  0.41955E-03  0.48967E-02  0.12645E-01  0.20036E-01  0.22522E-01
  0.27112E-02  0.13484E-01  0.22522E-01  0.24817E-01  0.19989E-01  0.11346E-01
  0.31030E-02  0.23525E-02  0.50599E-02  0.63117E-02  0.71428E-02  0.78840E-02
  0.85327E-02  0.91263E-02  0.97304E-02  0.10292E-01  0.10661E-01  0.10709E-01
  0.10338E-01  0.94084E-02  0.77577E-02  0.53655E-02  0.24594E-02  0.10532E-02
  0.42197E-02  0.75889E-02  0.10781E-01  0.13181E-01  0.14086E-01  0.13181E-01
  0.10781E-01  0.75889E-02  0.42196E-02  0.10532E-02  0.24594E-02  0.53655E-02
  0.77577E-02  0.94084E-02  0.10338E-01  0.10709E-01  0.10661E-01  0.10292E-01
  0.97304E-02  0.91263E-02  0.85327E-02  0.78841E-02  0.71428E-02  0.63117E-02
  0.50599E-02  0.23525E-02  0.31030E-02  0.11346E-01  0.19989E-01  0.24817E-01
  0.61023E-02  0.14436E-01  0.20036E-01  0.19989E-01  0.14580E-01  0.67192E-02
  0.34821E-03  0.49511E-02  0.73630E-02  0.86126E-02  0.94540E-02  0.10114E-01
  0.10623E-01  0.11065E-01  0.11509E-01  0.11900E-01  0.12104E-01  0.12017E-01
  0.11558E-01  0.10609E-01  0.90395E-02  0.68508E-02  0.42362E-02  0.15018E-02
  0.17937E-02  0.47827E-02  0.77178E-02  0.99524E-02  0.10799E-01  0.99524E-02
  0.77178E-02  0.47827E-02  0.17937E-02  0.15018E-02  0.42362E-02  0.68508E-02
  0.90395E-02  0.10609E-01  0.11558E-01  0.12017E-01  0.12104E-01  0.11900E-01
  0.11509E-01  0.11065E-01  0.10623E-01  0.10114E-01  0.94540E-02  0.86126E-02
  0.73630E-02  0.49511E-02  0.34821E-03  0.67192E-02  0.14580E-01  0.19989E-01
  0.54633E-02  0.10133E-01  0.12645E-01  0.11346E-01  0.67192E-02  0.83168E-03
  0.42474E-02  0.76060E-02  0.95183E-02  0.10648E-01  0.11418E-01  0.11950E-01
  0.12309E-01  0.12604E-01  0.12890E-01  0.13105E-01  0.13135E-01  0.12900E-01
  0.12339E-01  0.11352E-01  0.98415E-02  0.78410E-02  0.55539E-02  0.32311E-02
  0.11013E-02  0.15465E-02  0.35231E-02  0.50485E-02  0.56260E-02  0.50485E-02
  0.35231E-02  0.15465E-02  0.11013E-02  0.32311E-02  0.55539E-02  0.78410E-02
  0.98415E-02  0.11352E-01  0.12339E-01  0.12900E-01  0.13135E-01  0.13105E-01
  0.12890E-01  0.12604E-01  0.12309E-01  0.11950E-01  0.11418E-01  0.10648E-01
  0.95183E-02  0.76060E-02  0.42474E-02  0.83168E-03  0.67192E-02  0.11346E-01
  0.31963E-02  0.46607E-02  0.48967E-02  0.31030E-02  0.34821E-03  0.42474E-02
  0.75577E-02  0.98710E-02  0.11363E-01  0.12343E-01  0.12986E-01  0.13368E-01
  0.13583E-01  0.13737E-01  0.13862E-01  0.13891E-01  0.13736E-01  0.13342E-01
  0.12658E-01  0.11601E-01  0.10103E-01  0.82138E-02  0.61408E-02  0.41455E-02
  0.23996E-02  0.97475E-03  0.59723E-03  0.13100E-02  0.16050E-02  0.13100E-02
  0.59723E-03  0.97475E-03  0.23996E-02  0.41455E-02  0.61408E-02  0.82138E-02
  0.10103E-01  0.11601E-01  0.12658E-01  0.13342E-01  0.13736E-01  0.13891E-01
  0.13862E-01  0.13737E-01  0.13583E-01  0.13368E-01  0.12986E-01  0.12343E-01
  0.11363E-01  0.98710E-02  0.75577E-02  0.42474E-02  0.34821E-03  0.31030E-02
  0.17278E-02  0.98740E-03  0.41955E-03  0.23525E-02  0.49511E-02  0.76060E-02
  0.98710E-02  0.11591E-01  0.12817E-01  0.13642E-01  0.14132E-01  0.14367E-01
  0.14454E-01  0.14474E-01  0.14431E-01  0.14271E-01  0.13932E-01  0.13377E-01
  0.12560E-01  0.11416E-01  0.98993E-02  0.80600E-02  0.60755E-02  0.41927E-02
  0.26187E-02  0.14489E-02  0.69145E-03  0.37079E-03  0.35176E-03  0.37079E-03
  0.69145E-03  0.14489E-02  0.26187E-02  0.41927E-02  0.60755E-02  0.80600E-02
  0.98993E-02  0.11416E-01  0.12560E-01  0.13377E-01  0.13932E-01  0.14271E-01
  0.14431E-01  0.14474E-01  0.14454E-01  0.14367E-01  0.14132E-01  0.13642E-01
  0.12817E-01  0.11591E-01  0.98710E-02  0.76060E-02  0.49511E-02  0.23525E-02
  0.14923E-02  0.89342E-03  0.28201E-02  0.50599E-02  0.73630E-02  0.95183E-02
  0.11363E-01  0.12817E-01  0.13864E-01  0.14524E-01  0.14863E-01  0.14976E-01
  0.14953E-01  0.14839E-01  0.14628E-01  0.14290E-01  0.13789E-01  0.13091E-01
  0.12151E-01  0.10924E-01  0.93871E-02  0.75817E-02  0.56366E-02  0.37493E-02
  0.21382E-02  0.10407E-02  0.80646E-03  0.10457E-02  0.11564E-02  0.10457E-02
  0.80646E-03  0.10407E-02  0.21382E-02  0.37493E-02  0.56366E-02  0.75817E-02
  0.93871E-02  0.10924E-01  0.12151E-01  0.13091E-01  0.13789E-01  0.14290E-01
  0.14628E-01  0.14839E-01  0.14953E-01  0.14976E-01  0.14863E-01  0.14524E-01
  0.13864E-01  0.12817E-01  0.11363E-01  0.95183E-02  0.73630E-02  0.50599E-02
  0.15823E-02  0.14064E-02  0.38468E-02  0.63117E-02  0.86126E-02  0.10648E-01
  0.12343E-01  0.13642E-01  0.14524E-01  0.15029E-01  0.15242E-01  0.15259E-01
  0.15133E-01  0.14885E-01  0.14520E-01  0.14036E-01  0.13415E-01  0.12613E-01
  0.11583E-01  0.10299E-01  0.87594E-02  0.70042E-02  0.51179E-02  0.32403E-02
  0.15757E-02  0.72209E-03  0.13400E-02  0.19126E-02  0.21109E-02  0.19127E-02
  0.13400E-02  0.72209E-03  0.15757E-02  0.32403E-02  0.51179E-02  0.70042E-02
  0.87594E-02  0.10299E-01  0.11583E-01  0.12613E-01  0.13415E-01  0.14036E-01
  0.14520E-01  0.14885E-01  0.15133E-01  0.15259E-01  0.15242E-01  0.15029E-01
  0.14524E-01  0.13642E-01  0.12343E-01  0.10648E-01  0.86126E-02  0.63117E-02
  0.13682E-02  0.18739E-02  0.45609E-02  0.71428E-02  0.94540E-02  0.11418E-01
  0.12986E-01  0.14132E-01  0.14863E-01  0.15242E-01  0.15361E-01  0.15290E-01
  0.15058E-01  0.14684E-01  0.14199E-01  0.13623E-01  0.12937E-01  0.12087E-01
  0.11024E-01  0.97315E-02  0.82262E-02  0.65469E-02  0.47552E-02  0.29495E-02
  0.12952E-02  0.66859E-03  0.16063E-02  0.22993E-02  0.25393E-02  0.22993E-02
  0.16063E-02  0.66859E-03  0.12952E-02  0.29495E-02  0.47552E-02  0.65469E-02
  0.82262E-02  0.97315E-02  0.11024E-01  0.12087E-01  0.12937E-01  0.13623E-01
  0.14199E-01  0.14684E-01  0.15058E-01  0.15290E-01  0.15361E-01  0.15242E-01
  0.14863E-01  0.14132E-01  0.12986E-01  0.11418E-01  0.94540E-02  0.71428E-02
  0.87962E-03  0.25684E-02  0.53229E-02  0.78840E-02  0.10114E-01  0.11950E-01
  0.13368E-01  0.14367E-01  0.14976E-01  0.15259E-01  0.15290E-01  0.15121E-01
  0.14783E-01  0.14314E-01  0.13763E-01  0.13157E-01  0.12468E-01  0.11639E-01
  0.10618E-01  0.93905E-02  0.79741E-02  0.64038E-02  0.47332E-02  0.30421E-02
  0.14485E-02  0.43917E-03  0.12714E-02  0.19714E-02  0.22169E-02  0.19714E-02
  0.12714E-02  0.43917E-03  0.14485E-02  0.30421E-02  0.47332E-02  0.64038E-02
  0.79741E-02  0.93905E-02  0.10618E-01  0.11639E-01  0.12468E-01  0.13157E-01
  0.13763E-01  0.14314E-01  0.14783E-01  0.15121E-01  0.15290E-01  0.15259E-01
  0.14976E-01  0.14367E-01  0.13368E-01  0.11950E-01  0.10114E-01  0.78840E-02
  0.84325E-03  0.33872E-02  0.60835E-02  0.85327E-02  0.10623E-01  0.12309E-01
  0.13583E-01  0.14454E-01  0.14953E-01  0.15133E-01  0.15058E-01  0.14783E-01
  0.14360E-01  0.13847E-01  0.13297E-01  0.12725E-01  0.12099E-01  0.11358E-01
  0.10457E-01  0.93747E-02  0.81124E-02  0.66948E-02  0.51716E-02  0.36174E-02
  0.21296E-02  0.84841E-03  0.49628E-03  0.10700E-02  0.12945E-02  0.10700E-02
  0.49628E-03  0.84841E-03  0.21296E-02  0.36174E-02  0.51715E-02  0.66948E-02
  0.81124E-02  0.93747E-02  0.10457E-01  0.11358E-01  0.12099E-01  0.12725E-01
  0.13297E-01  0.13847E-01  0.14360E-01  0.14783E-01  0.15058E-01  0.15133E-01
  0.14953E-01  0.14454E-01  0.13583E-01  0.12309E-01  0.10623E-01  0.85327E-02
  0.15990E-02  0.42563E-02  0.68265E-02  0.91263E-02  0.11065E-01  0.12604E-01
  0.13737E-01  0.14474E-01  0.14839E-01  0.14885E-01  0.14684E-01  0.14314E-01
  0.13847E-01  0.13349E-01  0.12864E-01  0.12390E-01  0.11886E-01  0.11299E-01
  0.10583E-01  0.97057E-02  0.86520E-02  0.74315E-02  0.60870E-02  0.46893E-02
  0.33300E-02  0.21202E-02  0.11904E-02  0.67777E-03  0.56242E-03  0.67777E-03
  0.11904E-02  0.21202E-02  0.33300E-02  0.46893E-02  0.60870E-02  0.74315E-02
  0.86520E-02  0.97057E-02  0.10583E-01  0.11299E-01  0.11886E-01  0.12390E-01
  0.12864E-01  0.13349E-01  0.13847E-01  0.14314E-01  0.14684E-01  0.14885E-01
  0.14839E-01  0.14474E-01  0.13737E-01  0.12604E-01  0.11065E-01  0.91263E-02
  0.26167E-02  0.51805E-02  0.75941E-02  0.97304E-02  0.11509E-01  0.12890E-01
  0.13862E-01  0.14431E-01  0.14628E-01  0.14520E-01  0.14199E-01  0.13763E-01
  0.13297E-01  0.12864E-01  0.12494E-01  0.12172E-01  0.11849E-01  0.11469E-01
  0.10983E-01  0.10346E-01  0.95322E-02  0.85374E-02  0.73944E-02  0.61669E-02
  0.49440E-02  0.38356E-02  0.29573E-02  0.24010E-02  0.22125E-02  0.24010E-02
  0.29573E-02  0.38356E-02  0.49440E-02  0.61669E-02  0.73944E-02  0.85374E-02
  0.95322E-02  0.10346E-01  0.10983E-01  0.11469E-01  0.11849E-01  0.12172E-01
  0.12494E-01  0.12864E-01  0.13297E-01  0.13763E-01  0.14199E-01  0.14520E-01
  0.14628E-01  0.14431E-01  0.13862E-01  0.12890E-01  0.11509E-01  0.97304E-02
  0.36636E-02  0.60814E-02  0.83262E-02  0.10292E-01  0.11900E-01  0.13105E-01
  0.13891E-01  0.14271E-01  0.14290E-01  0.14036E-01  0.13623E-01  0.13157E-01
  0.12725E-01  0.12390E-01  0.12172E-01  0.12047E-01  0.11955E-01  0.11826E-01
  0.11598E-01  0.11221E-01  0.10657E-01  0.98921E-02  0.89462E-02  0.78777E-02
  0.67782E-02  0.57629E-02  0.49489E-02  0.44274E-02  0.42487E-02  0.44274E-02
  0.49489E-02  0.57629E-02  0.67782E-02  0.78777E-02  0.89462E-02  0.98921E-02
  0.10657E-01  0.11221E-01  0.11598E-01  0.11826E-01  0.11955E-01  0.12047E-01
  0.12172E-01  0.12390E-01  0.12725E-01  0.13157E-01  0.13623E-01  0.14036E-01
  0.14290E-01  0.14271E-01  0.13891E-01  0.13105E-01  0.11900E-01  0.10292E-01
  0.45327E-02  0.67834E-02  0.88589E-02  0.10661E-01  0.12104E-01  0.13135E-01
  0.13736E-01  0.13932E-01  0.13789E-01  0.13415E-01  0.12937E-01  0.12468E-01
  0.12099E-01  0.11886E-01  0.11849E-01  0.11955E-01  0.12128E-01  0.12278E-01
  0.12329E-01  0.12221E-01  0.11904E-01  0.11350E-01  0.10566E-01  0.96125E-02
  0.85922E-02  0.76300E-02  0.68472E-02  0.63395E-02  0.61641E-02  0.63395E-02
  0.68472E-02  0.76299E-02  0.85922E-02  0.96125E-02  0.10566E-01  0.11350E-01
  0.11904E-01  0.12221E-01  0.12329E-01  0.12278E-01  0.12128E-01  0.11955E-01
  0.11849E-01  0.11886E-01  0.12099E-01  0.12468E-01  0.12937E-01  0.13415E-01
  0.13789E-01  0.13932E-01  0.13736E-01  0.13135E-01  0.12104E-01  0.10661E-01
  0.50570E-02  0.71285E-02  0.90451E-02  0.10709E-01  0.12017E-01  0.12900E-01
  0.13342E-01  0.13377E-01  0.13091E-01  0.12613E-01  0.12087E-01  0.11639E-01
  0.11358E-01  0.11299E-01  0.11469E-01  0.11826E-01  0.12278E-01  0.12718E-01
  0.13055E-01  0.13212E-01  0.13122E-01  0.12737E-01  0.12059E-01  0.11158E-01
  0.10150E-01  0.91746E-02  0.83622E-02  0.78232E-02  0.76343E-02  0.78232E-02
  0.83622E-02  0.91746E-02  0.10150E-01  0.11158E-01  0.12059E-01  0.12737E-01
  0.13122E-01  0.13212E-01  0.13055E-01  0.12718E-01  0.12278E-01  0.11826E-01
  0.11469E-01  0.11299E-01  0.11358E-01  0.11639E-01  0.12087E-01  0.12613E-01
  0.13091E-01  0.13377E-01  0.13342E-01  0.12900E-01  0.12017E-01  0.10709E-01
  0.51132E-02  0.69961E-02  0.87735E-02  0.10338E-01  0.11558E-01  0.12339E-01
  0.12658E-01  0.12560E-01  0.12151E-01  0.11583E-01  0.11024E-01  0.10618E-01
  0.10457E-01  0.10583E-01  0.10983E-01  0.11598E-01  0.12329E-01  0.13055E-01
  0.13665E-01  0.14057E-01  0.14145E-01  0.13867E-01  0.13224E-01  0.12293E-01
  0.11208E-01  0.10123E-01  0.91923E-02  0.85593E-02  0.83341E-02  0.85593E-02
  0.91923E-02  0.10123E-01  0.11208E-01  0.12293E-01  0.13224E-01  0.13867E-01
  0.14145E-01  0.14057E-01  0.13665E-01  0.13055E-01  0.12329E-01  0.11598E-01
  0.10983E-01  0.10583E-01  0.10457E-01  0.10618E-01  0.11024E-01  0.11583E-01
  0.12151E-01  0.12560E-01  0.12658E-01  0.12339E-01  0.11558E-01  0.10338E-01
  0.45416E-02  0.62203E-02  0.78859E-02  0.94084E-02  0.10609E-01  0.11352E-01
  0.11601E-01  0.11416E-01  0.10924E-01  0.10299E-01  0.97315E-02  0.93905E-02
  0.93747E-02  0.97057E-02  0.10346E-01  0.11221E-01  0.12221E-01  0.13212E-01
  0.14057E-01  0.14628E-01  0.14819E-01  0.14562E-01  0.13852E-01  0.12767E-01
  0.11455E-01  0.10106E-01  0.89260E-02  0.81149E-02  0.78253E-02  0.81149E-02
  0.89260E-02  0.10106E-01  0.11455E-01  0.12767E-01  0.13852E-01  0.14562E-01
  0.14819E-01  0.14628E-01  0.14057E-01  0.13212E-01  0.12221E-01  0.11221E-01
  0.10346E-01  0.97057E-02  0.93747E-02  0.93905E-02  0.97315E-02  0.10299E-01
  0.10924E-01  0.11416E-01  0.11601E-01  0.11352E-01  0.10609E-01  0.94084E-02
  0.31823E-02  0.46203E-02  0.62004E-02  0.77577E-02  0.90395E-02  0.98415E-02
  0.10103E-01  0.98993E-02  0.93871E-02  0.87594E-02  0.82262E-02  0.79741E-02
  0.81124E-02  0.86520E-02  0.95322E-02  0.10657E-01  0.11904E-01  0.13122E-01
  0.14145E-01  0.14819E-01  0.15023E-01  0.14670E-01  0.13737E-01  0.12296E-01
  0.10530E-01  0.87052E-02  0.71228E-02  0.60556E-02  0.56811E-02  0.60556E-02
  0.71228E-02  0.87052E-02  0.10530E-01  0.12296E-01  0.13737E-01  0.14670E-01
  0.15023E-01  0.14819E-01  0.14145E-01  0.13122E-01  0.11904E-01  0.10657E-01
  0.95322E-02  0.86520E-02  0.81124E-02  0.79741E-02  0.82262E-02  0.87594E-02
  0.93871E-02  0.98993E-02  0.10103E-01  0.98415E-02  0.90395E-02  0.77577E-02
  0.11307E-02  0.22309E-02  0.37069E-02  0.53655E-02  0.68508E-02  0.78410E-02
  0.82138E-02  0.80600E-02  0.75817E-02  0.70042E-02  0.65469E-02  0.64038E-02
  0.66948E-02  0.74315E-02  0.85374E-02  0.98921E-02  0.11350E-01  0.12737E-01
  0.13867E-01  0.14562E-01  0.14670E-01  0.14066E-01  0.12697E-01  0.10651E-01
  0.81938E-02  0.57347E-02  0.37326E-02  0.25635E-02  0.22367E-02  0.25635E-02
  0.37326E-02  0.57347E-02  0.81938E-02  0.10651E-01  0.12697E-01  0.14066E-01
  0.14670E-01  0.14562E-01  0.13867E-01  0.12737E-01  0.11350E-01  0.98921E-02
  0.85374E-02  0.74315E-02  0.66948E-02  0.64038E-02  0.65469E-02  0.70042E-02
  0.75817E-02  0.80600E-02  0.82138E-02  0.78410E-02  0.68508E-02  0.53655E-02
  0.12825E-02  0.77956E-03  0.82347E-03  0.24594E-02  0.42362E-02  0.55539E-02
  0.61408E-02  0.60755E-02  0.56366E-02  0.51179E-02  0.47552E-02  0.47332E-02
  0.51716E-02  0.60870E-02  0.73944E-02  0.89462E-02  0.10566E-01  0.12059E-01
  0.13224E-01  0.13852E-01  0.13737E-01  0.12697E-01  0.10670E-01  0.78218E-02
  0.45956E-02  0.18335E-02  0.20802E-02  0.35101E-02  0.40497E-02  0.35101E-02
  0.20802E-02  0.18335E-02  0.45956E-02  0.78218E-02  0.10670E-01  0.12697E-01
  0.13737E-01  0.13852E-01  0.13224E-01  0.12059E-01  0.10566E-01  0.89462E-02
  0.73944E-02  0.60870E-02  0.51716E-02  0.47332E-02  0.47552E-02  0.51179E-02
  0.56366E-02  0.60755E-02  0.61408E-02  0.55539E-02  0.42362E-02  0.24594E-02
  0.29638E-02  0.32518E-02  0.25958E-02  0.10532E-02  0.15018E-02  0.32311E-02
  0.41455E-02  0.41927E-02  0.37493E-02  0.32403E-02  0.29495E-02  0.30421E-02
  0.36174E-02  0.46893E-02  0.61669E-02  0.78777E-02  0.96125E-02  0.11158E-01
  0.12293E-01  0.12767E-01  0.12296E-01  0.10651E-01  0.78218E-02  0.41705E-02
  0.12012E-02  0.38778E-02  0.66101E-02  0.83151E-02  0.88868E-02  0.83151E-02
  0.66101E-02  0.38778E-02  0.12012E-02  0.41705E-02  0.78218E-02  0.10651E-01
  0.12296E-01  0.12767E-01  0.12293E-01  0.11158E-01  0.96125E-02  0.78777E-02
  0.61669E-02  0.46893E-02  0.36174E-02  0.30421E-02  0.29495E-02  0.32403E-02
  0.37493E-02  0.41927E-02  0.41455E-02  0.32311E-02  0.15018E-02  0.10532E-02
  0.34313E-02  0.50846E-02  0.55205E-02  0.42196E-02  0.17937E-02  0.11013E-02
  0.23996E-02  0.26187E-02  0.21382E-02  0.15758E-02  0.12952E-02  0.14485E-02
  0.21296E-02  0.33300E-02  0.49440E-02  0.67782E-02  0.85922E-02  0.10150E-01
  0.11208E-01  0.11455E-01  0.10530E-01  0.81938E-02  0.45956E-02  0.12012E-02
  0.45681E-02  0.82098E-02  0.10848E-01  0.12382E-01  0.12877E-01  0.12382E-01
  0.10848E-01  0.82098E-02  0.45681E-02  0.12012E-02  0.45956E-02  0.81938E-02
  0.10530E-01  0.11455E-01  0.11208E-01  0.10150E-01  0.85922E-02  0.67782E-02
  0.49440E-02  0.33300E-02  0.21296E-02  0.14485E-02  0.12952E-02  0.15757E-02
  0.21382E-02  0.26187E-02  0.23996E-02  0.11013E-02  0.17937E-02  0.42196E-02
  0.26890E-02  0.60750E-02  0.81794E-02  0.75889E-02  0.47827E-02  0.15465E-02
  0.97475E-03  0.14489E-02  0.10407E-02  0.72209E-03  0.66859E-03  0.43917E-03
  0.84841E-03  0.21202E-02  0.38356E-02  0.57629E-02  0.76300E-02  0.91746E-02
  0.10123E-01  0.10106E-01  0.87052E-02  0.57347E-02  0.18335E-02  0.38778E-02
  0.82098E-02  0.11639E-01  0.13909E-01  0.15121E-01  0.15489E-01  0.15121E-01
  0.13909E-01  0.11639E-01  0.82098E-02  0.38778E-02  0.18335E-02  0.57347E-02
  0.87052E-02  0.10106E-01  0.10123E-01  0.91746E-02  0.76299E-02  0.57629E-02
  0.38356E-02  0.21202E-02  0.84841E-03  0.43917E-03  0.66859E-03  0.72209E-03
  0.10407E-02  0.14489E-02  0.97475E-03  0.15465E-02  0.47827E-02  0.75889E-02
  0.17291E-02  0.64191E-02  0.10468E-01  0.10781E-01  0.77178E-02  0.35231E-02
  0.59723E-03  0.69145E-03  0.80646E-03  0.13400E-02  0.16063E-02  0.12714E-02
  0.49628E-03  0.11904E-02  0.29573E-02  0.49489E-02  0.68472E-02  0.83622E-02
  0.91923E-02  0.89260E-02  0.71228E-02  0.37326E-02  0.20802E-02  0.66101E-02
  0.10848E-01  0.13909E-01  0.15722E-01  0.16532E-01  0.16731E-01  0.16532E-01
  0.15722E-01  0.13909E-01  0.10848E-01  0.66101E-02  0.20802E-02  0.37326E-02
  0.71228E-02  0.89260E-02  0.91923E-02  0.83622E-02  0.68472E-02  0.49489E-02
  0.29573E-02  0.11904E-02  0.49628E-03  0.12714E-02  0.16063E-02  0.13400E-02
  0.80646E-03  0.69145E-03  0.59723E-03  0.35231E-02  0.77178E-02  0.10781E-01
  0.19720E-02  0.64222E-02  0.12101E-01  0.13181E-01  0.99524E-02  0.50485E-02
  0.13100E-02  0.37079E-03  0.10457E-02  0.19127E-02  0.22993E-02  0.19714E-02
  0.10700E-02  0.67777E-03  0.24010E-02  0.44274E-02  0.63395E-02  0.78232E-02
  0.85593E-02  0.81149E-02  0.60556E-02  0.25635E-02  0.35101E-02  0.83151E-02
  0.12382E-01  0.15121E-01  0.16532E-01  0.16948E-01  0.16970E-01  0.16948E-01
  0.16532E-01  0.15121E-01  0.12382E-01  0.83151E-02  0.35101E-02  0.25635E-02
  0.60556E-02  0.81149E-02  0.85593E-02  0.78232E-02  0.63395E-02  0.44274E-02
  0.24010E-02  0.67777E-03  0.10700E-02  0.19714E-02  0.22993E-02  0.19127E-02
  0.10457E-02  0.37079E-03  0.13100E-02  0.50485E-02  0.99524E-02  0.13181E-01
  0.23422E-02  0.63779E-02  0.12704E-01  0.14085E-01  0.10799E-01  0.56260E-02
  0.16050E-02  0.35176E-03  0.11564E-02  0.21109E-02  0.25393E-02  0.22169E-02
  0.12945E-02  0.56242E-03  0.22125E-02  0.42487E-02  0.61641E-02  0.76343E-02
  0.83341E-02  0.78253E-02  0.56811E-02  0.22367E-02  0.40497E-02  0.88868E-02
  0.12877E-01  0.15489E-01  0.16731E-01  0.16970E-01  0.16909E-01  0.16970E-01
  0.16731E-01  0.15489E-01  0.12877E-01  0.88868E-02  0.40497E-02  0.22367E-02
  0.56811E-02  0.78253E-02  0.83341E-02  0.76343E-02  0.61641E-02  0.42487E-02
  0.22125E-02  0.56242E-03  0.12945E-02  0.22169E-02  0.25393E-02  0.21109E-02
  0.11564E-02  0.35176E-03  0.16050E-02  0.56260E-02  0.10799E-01  0.14085E-01
  0.19720E-02  0.64222E-02  0.12101E-01  0.13181E-01  0.99524E-02  0.50485E-02
  0.13100E-02  0.37079E-03  0.10457E-02  0.19127E-02  0.22993E-02  0.19714E-02
  0.10700E-02  0.67777E-03  0.24010E-02  0.44274E-02  0.63395E-02  0.78232E-02
  0.85593E-02  0.81149E-02  0.60556E-02  0.25635E-02  0.35101E-02  0.83151E-02
  0.12382E-01  0.15121E-01  0.16532E-01  0.16948E-01  0.16970E-01  0.16948E-01
  0.16532E-01  0.15121E-01  0.12382E-01  0.83151E-02  0.35101E-02  0.25635E-02
  0.60556E-02  0.81149E-02  0.85593E-02  0.78232E-02  0.63395E-02  0.44274E-02
  0.24010E-02  0.67777E-03  0.10700E-02  0.19714E-02  0.22993E-02  0.19127E-02
  0.10457E-02  0.37079E-03  0.13100E-02  0.50485E-02  0.99524E-02  0.13181E-01
  0.17292E-02  0.64191E-02  0.10468E-01  0.10781E-01  0.77178E-02  0.35231E-02
  0.59723E-03  0.69145E-03  0.80646E-03  0.13400E-02  0.16063E-02  0.12714E-02
  0.49628E-03  0.11904E-02  0.29573E-02  0.49489E-02  0.68472E-02  0.83622E-02
  0.91923E-02  0.89260E-02  0.71228E-02  0.37326E-02  0.20802E-02  0.66101E-02
  0.10848E-01  0.13909E-01  0.15722E-01  0.16532E-01  0.16731E-01  0.16532E-01
  0.15722E-01  0.13909E-01  0.10848E-01  0.66101E-02  0.20802E-02  0.37326E-02
  0.71228E-02  0.89260E-02  0.91923E-02  0.83622E-02  0.68472E-02  0.49489E-02
  0.29573E-02  0.11904E-02  0.49628E-03  0.12714E-02  0.16063E-02  0.13400E-02
  0.80646E-03  0.69145E-03  0.59723E-03  0.35231E-02  0.77178E-02  0.10781E-01
  0.26890E-02  0.60750E-02  0.81794E-02  0.75889E-02  0.47827E-02  0.15465E-02
  0.97475E-03  0.14489E-02  0.10407E-02  0.72209E-03  0.66859E-03  0.43917E-03
  0.84841E-03  0.21202E-02  0.38356E-02  0.57629E-02  0.76299E-02  0.91746E-02
  0.10123E-01  0.10106E-01  0.87052E-02  0.57347E-02  0.18335E-02  0.38778E-02
  0.82098E-02  0.11639E-01  0.13909E-01  0.15121E-01  0.15489E-01  0.15121E-01
  0.13909E-01  0.11639E-01  0.82098E-02  0.38778E-02  0.18335E-02  0.57347E-02
  0.87052E-02  0.10106E-01  0.10123E-01  0.91746E-02  0.76300E-02  0.57629E-02
  0.38356E-02  0.21202E-02  0.84841E-03  0.43917E-03  0.66859E-03  0.72209E-03
  0.10407E-02  0.14489E-02  0.97475E-03  0.15465E-02  0.47827E-02  0.75889E-02
  0.34313E-02  0.50846E-02  0.55205E-02  0.42196E-02  0.17937E-02  0.11013E-02
  0.23996E-02  0.26187E-02  0.21382E-02  0.15757E-02  0.12952E-02  0.14485E-02
  0.21296E-02  0.33300E-02  0.49440E-02  0.67782E-02  0.85922E-02  0.10150E-01
  0.11208E-01  0.11455E-01  0.10530E-01  0.81938E-02  0.45956E-02  0.12012E-02
  0.45681E-02  0.82098E-02  0.10848E-01  0.12382E-01  0.12877E-01  0.12382E-01
  0.10848E-01  0.82098E-02  0.45681E-02  0.12012E-02  0.45956E-02  0.81938E-02
  0.10530E-01  0.11455E-01  0.11208E-01  0.10150E-01  0.85922E-02  0.67782E-02
  0.49440E-02  0.33300E-02  0.21296E-02  0.14485E-02  0.12952E-02  0.15757E-02
  0.21382E-02  0.26187E-02  0.23996E-02  0.11013E-02  0.17937E-02  0.42196E-02
  0.29638E-02  0.32518E-02  0.25958E-02  0.10532E-02  0.15018E-02  0.32311E-02
  0.41455E-02  0.41927E-02  0.37493E-02  0.32403E-02  0.29495E-02  0.30421E-02
  0.36174E-02  0.46893E-02  0.61669E-02  0.78777E-02  0.96125E-02  0.11158E-01
  0.12293E-01  0.12767E-01  0.12296E-01  0.10651E-01  0.78218E-02  0.41705E-02
  0.12012E-02  0.38778E-02  0.66101E-02  0.83151E-02  0.88868E-02  0.83151E-02
  0.66101E-02  0.38778E-02  0.12012E-02  0.41705E-02  0.78218E-02  0.10651E-01
  0.12296E-01  0.12767E-01  0.12293E-01  0.11158E-01  0.96125E-02  0.78777E-02
  0.61669E-02  0.46893E-02  0.36174E-02  0.30421E-02  0.29495E-02  0.32403E-02
  0.37493E-02  0.41927E-02  0.41455E-02  0.32311E-02  0.15018E-02  0.10532E-02
  0.12825E-02  0.77956E-03  0.82347E-03  0.24594E-02  0.42362E-02  0.55539E-02
  0.61408E-02  0.60755E-02  0.56366E-02  0.51179E-02  0.47552E-02  0.47332E-02
  0.51715E-02  0.60870E-02  0.73944E-02  0.89462E-02  0.10566E-01  0.12059E-01
  0.13224E-01  0.13852E-01  0.13737E-01  0.12697E-01  0.10670E-01  0.78218E-02
  0.45956E-02  0.18335E-02  0.20802E-02  0.35101E-02  0.40497E-02  0.35101E-02
  0.20802E-02  0.18335E-02  0.45956E-02  0.78218E-02  0.10670E-01  0.12697E-01
  0.13737E-01  0.13852E-01  0.13224E-01  0.12059E-01  0.10566E-01  0.89462E-02
  0.73944E-02  0.60870E-02  0.51716E-02  0.47332E-02  0.47552E-02  0.51179E-02
  0.56366E-02  0.60755E-02  0.61408E-02  0.55539E-02  0.42362E-02  0.24594E-02
  0.11307E-02  0.22309E-02  0.37069E-02  0.53655E-02  0.68508E-02  0.78410E-02
  0.82138E-02  0.80600E-02  0.75817E-02  0.70042E-02  0.65469E-02  0.64038E-02
  0.66948E-02  0.74315E-02  0.85374E-02  0.98921E-02  0.11350E-01  0.12737E-01
  0.13867E-01  0.14562E-01  0.14670E-01  0.14066E-01  0.12697E-01  0.10651E-01
  0.81938E-02  0.57347E-02  0.37326E-02  0.25635E-02  0.22367E-02  0.25635E-02
  0.37326E-02  0.57347E-02  0.81938E-02  0.10651E-01  0.12697E-01  0.14066E-01
  0.14670E-01  0.14562E-01  0.13867E-01  0.12737E-01  0.11350E-01  0.98921E-02
  0.85374E-02  0.74315E-02  0.66948E-02  0.64038E-02  0.65469E-02  0.70042E-02
  0.75817E-02  0.80600E-02  0.82138E-02  0.78410E-02  0.68508E-02  0.53655E-02
  0.31823E-02  0.46203E-02  0.62004E-02  0.77577E-02  0.90395E-02  0.98415E-02
  0.10103E-01  0.98993E-02  0.93871E-02  0.87594E-02  0.82262E-02  0.79741E-02
  0.81124E-02  0.86520E-02  0.95322E-02  0.10657E-01  0.11904E-01  0.13122E-01
  0.14145E-01  0.14819E-01  0.15023E-01  0.14670E-01  0.13737E-01  0.12296E-01
  0.10530E-01  0.87052E-02  0.71228E-02  0.60556E-02  0.56811E-02  0.60556E-02
  0.71228E-02  0.87052E-02  0.10530E-01  0.12296E-01  0.13737E-01  0.14670E-01
  0.15023E-01  0.14819E-01  0.14145E-01  0.13122E-01  0.11904E-01  0.10657E-01
  0.95322E-02  0.86520E-02  0.81124E-02  0.79741E-02  0.82262E-02  0.87594E-02
  0.93871E-02  0.98993E-02  0.10103E-01  0.98415E-02  0.90395E-02  0.77577E-02
  0.45416E-02  0.62203E-02  0.78859E-02  0.94084E-02  0.10609E-01  0.11352E-01
  0.11601E-01  0.11416E-01  0.10924E-01  0.10299E-01  0.97315E-02  0.93905E-02
  0.93747E-02  0.97057E-02  0.10346E-01  0.11221E-01  0.12221E-01  0.13212E-01
  0.14057E-01  0.14628E-01  0.14819E-01  0.14562E-01  0.13852E-01  0.12767E-01
  0.11455E-01  0.10106E-01  0.89260E-02  0.81149E-02  0.78253E-02  0.81149E-02
  0.89260E-02  0.10106E-01  0.11455E-01  0.12767E-01  0.13852E-01  0.14562E-01
  0.14819E-01  0.14628E-01  0.14057E-01  0.13212E-01  0.12221E-01  0.11221E-01
  0.10346E-01  0.97057E-02  0.93747E-02  0.93905E-02  0.97315E-02  0.10299E-01
  0.10924E-01  0.11416E-01  0.11601E-01  0.11352E-01  0.10609E-01  0.94084E-02
  0.51132E-02  0.69961E-02  0.87735E-02  0.10338E-01  0.11558E-01  0.12339E-01
  0.12658E-01  0.12560E-01  0.12151E-01  0.11583E-01  0.11024E-01  0.10618E-01
  0.10457E-01  0.10583E-01  0.10983E-01  0.11598E-01  0.12329E-01  0.13055E-01
  0.13665E-01  0.14057E-01  0.14145E-01  0.13867E-01  0.13224E-01  0.12293E-01
  0.11208E-01  0.10123E-01  0.91923E-02  0.85593E-02  0.83341E-02  0.85593E-02
  0.91923E-02  0.10123E-01  0.11208E-01  0.12293E-01  0.13224E-01  0.13867E-01
  0.14145E-01  0.14057E-01  0.13665E-01  0.13055E-01  0.12329E-01  0.11598E-01
  0.10983E-01  0.10583E-01  0.10457E-01  0.10618E-01  0.11024E-01  0.11583E-01
  0.12151E-01  0.12560E-01  0.12658E-01  0.12339E-01  0.11558E-01  0.10338E-01
  0.50570E-02  0.71285E-02  0.90451E-02  0.10709E-01  0.12017E-01  0.12900E-01
  0.13342E-01  0.13377E-01  0.13091E-01  0.12613E-01  0.12087E-01  0.11639E-01
  0.11358E-01  0.11299E-01  0.11469E-01  0.11826E-01  0.12278E-01  0.12718E-01
  0.13055E-01  0.13212E-01  0.13122E-01  0.12737E-01  0.12059E-01  0.11158E-01
  0.10150E-01  0.91746E-02  0.83622E-02  0.78232E-02  0.76343E-02  0.78232E-02
  0.83622E-02  0.91746E-02  0.10150E-01  0.11158E-01  0.12059E-01  0.12737E-01
  0.13122E-01  0.13212E-01  0.13055E-01  0.12718E-01  0.12278E-01  0.11826E-01
  0.11469E-01  0.11299E-01  0.11358E-01  0.11639E-01  0.12087E-01  0.12613E-01
  0.13091E-01  0.13377E-01  0.13342E-01  0.12900E-01  0.12017E-01  0.10709E-01
  0.45327E-02  0.67834E-02  0.88589E-02  0.10661E-01  0.12104E-01  0.13135E-01
  0.13736E-01  0.13932E-01  0.13789E-01  0.13415E-01  0.12937E-01  0.12468E-01
  0.12099E-01  0.11886E-01  0.11849E-01  0.11955E-01  0.12128E-01  0.12278E-01
  0.12329E-01  0.12221E-01  0.11904E-01  0.11350E-01  0.10566E-01  0.96125E-02
  0.85922E-02  0.76300E-02  0.68472E-02  0.63395E-02  0.61641E-02  0.63395E-02
  0.68472E-02  0.76299E-02  0.85922E-02  0.96125E-02  0.10566E-01  0.11350E-01
  0.11904E-01  0.12221E-01  0.12329E-01  0.12278E-01  0.12128E-01  0.11955E-01
  0.11849E-01  0.11886E-01  0.12099E-01  0.12468E-01  0.12937E-01  0.13415E-01
  0.13789E-01  0.13932E-01  0.13736E-01  0.13135E-01  0.12104E-01  0.10661E-01
  0.36636E-02  0.60814E-02  0.83262E-02  0.10292E-01  0.11900E-01  0.13105E-01