       #
       # Generated by the Wannier90 code http://www.wannier.org
       # On 10May2024 at 21:04:43 
       #
CRYSTAL
PRIMVEC
   2.7281430   0.0000000   0.0000000
   0.0000000   2.7281430   0.0000000
   0.0000000   0.0000000   3.7789840
CONVVEC
   2.7281430   0.0000000   0.0000000
   0.0000000   2.7281430   0.0000000
   0.0000000   0.0000000   3.7789840
PRIMCOORD
     2  1
Fe      0.0000000   0.0000000   0.0000000
Pt      1.3640715   1.3640715   1.8894920


BEGIN_BLOCK_DATAGRID_3D
3D_field
BEGIN_DATAGRID_3D_UNKNOWN
    54    54    80
   -2.829185   -2.829185   -3.873459
   5.3552437   0.0000000   0.0000000
   0.0000000   5.3552437   0.0000000
   0.0000000   0.0000000   7.4634934
  0.57701E-02  0.76270E-02  0.80762E-02  0.67405E-02  0.42382E-02  0.18136E-02
  0.47867E-03  0.32838E-03  0.11351E-02  0.20911E-02  0.27896E-02  0.31292E-02
  0.31338E-02  0.28391E-02  0.22777E-02  0.14915E-02  0.60420E-03  0.69225E-03
  0.15410E-02  0.22610E-02  0.27499E-02  0.25862E-02  0.75107E-03  0.37862E-02
  0.10488E-01  0.16462E-01  0.17574E-01  0.11478E-01  0.40908E-03  0.11478E-01
  0.17574E-01  0.16462E-01  0.10488E-01  0.37862E-02  0.75107E-03  0.25862E-02
  0.27499E-02  0.22610E-02  0.15410E-02  0.69225E-03  0.60420E-03  0.14915E-02
  0.22777E-02  0.28391E-02  0.31338E-02  0.31292E-02  0.27896E-02  0.20911E-02
  0.11351E-02  0.32838E-03  0.47867E-03  0.18136E-02  0.42382E-02  0.67405E-02
  0.41263E-02  0.66413E-02  0.78271E-02  0.70616E-02  0.48106E-02  0.22984E-02
  0.63888E-03  0.15218E-03  0.66709E-03  0.13744E-02  0.18992E-02  0.21187E-02
  0.20398E-02  0.16918E-02  0.11092E-02  0.42295E-03  0.83552E-03  0.17980E-02
  0.26580E-02  0.33092E-02  0.36611E-02  0.32214E-02  0.87204E-03  0.44141E-02
  0.11972E-01  0.18554E-01  0.19660E-01  0.12806E-01  0.10025E-02  0.12806E-01
  0.19660E-01  0.18554E-01  0.11972E-01  0.44141E-02  0.87204E-03  0.32214E-02
  0.36611E-02  0.33092E-02  0.26580E-02  0.17980E-02  0.83552E-03  0.42295E-03
  0.11092E-02  0.16918E-02  0.20398E-02  0.21187E-02  0.18992E-02  0.13744E-02
  0.66709E-03  0.15218E-03  0.63888E-03  0.22984E-02  0.48106E-02  0.70616E-02
  0.18593E-02  0.45575E-02  0.61801E-02  0.59975E-02  0.42965E-02  0.21279E-02
  0.53351E-03  0.14127E-03  0.37841E-03  0.76068E-03  0.10723E-02  0.11623E-02
  0.10138E-02  0.66042E-03  0.38337E-03  0.96922E-03  0.18871E-02  0.28413E-02
  0.36525E-02  0.42242E-02  0.44623E-02  0.39063E-02  0.15202E-02  0.36322E-02
  0.10913E-01  0.17252E-01  0.18415E-01  0.12093E-01  0.18802E-02  0.12093E-01
  0.18415E-01  0.17252E-01  0.10913E-01  0.36322E-02  0.15202E-02  0.39063E-02
  0.44623E-02  0.42242E-02  0.36525E-02  0.28413E-02  0.18871E-02  0.96922E-03
  0.38337E-03  0.66042E-03  0.10138E-02  0.11623E-02  0.10723E-02  0.76068E-03
  0.37841E-03  0.14127E-03  0.53351E-03  0.21279E-02  0.42965E-02  0.59975E-02
  0.93136E-03  0.23309E-02  0.38872E-02  0.40913E-02  0.30150E-02  0.14276E-02
  0.16987E-03  0.44639E-03  0.55296E-03  0.55498E-03  0.58786E-03  0.57408E-03
  0.53124E-03  0.68412E-03  0.11734E-02  0.19060E-02  0.27869E-02  0.36873E-02
  0.44432E-02  0.49453E-02  0.51104E-02  0.45938E-02  0.25870E-02  0.16803E-02
  0.77277E-02  0.13105E-01  0.14363E-01  0.96099E-02  0.21534E-02  0.96099E-02
  0.14363E-01  0.13105E-01  0.77277E-02  0.16803E-02  0.25870E-02  0.45938E-02
  0.51104E-02  0.49453E-02  0.44432E-02  0.36873E-02  0.27869E-02  0.19060E-02
  0.11734E-02  0.68412E-03  0.53124E-03  0.57408E-03  0.58786E-03  0.55498E-03
  0.55296E-03  0.44639E-03  0.16987E-03  0.14276E-02  0.30150E-02  0.40913E-02
  0.18070E-02  0.10611E-02  0.18210E-02  0.21118E-02  0.15335E-02  0.52794E-03
  0.36105E-03  0.82698E-03  0.95834E-03  0.95090E-03  0.93589E-03  0.97060E-03
  0.11153E-02  0.14358E-02  0.19498E-02  0.26327E-02  0.34387E-02  0.42696E-02
  0.49735E-02  0.54263E-02  0.55554E-02  0.51564E-02  0.37087E-02  0.67583E-03
  0.37135E-02  0.77626E-02  0.90740E-02  0.62798E-02  0.17661E-02  0.62798E-02
  0.90740E-02  0.77626E-02  0.37135E-02  0.67583E-03  0.37087E-02  0.51564E-02
  0.55554E-02  0.54263E-02  0.49735E-02  0.42696E-02  0.34387E-02  0.26327E-02
  0.19498E-02  0.14358E-02  0.11153E-02  0.97060E-03  0.93589E-03  0.95090E-03
  0.95834E-03  0.82698E-03  0.36105E-03  0.52794E-03  0.15335E-02  0.21118E-02
  0.17873E-02  0.96075E-03  0.56194E-03  0.63453E-03  0.33680E-03  0.27974E-03
  0.84710E-03  0.12121E-02  0.13789E-02  0.14414E-02  0.14778E-02  0.15456E-02
  0.17073E-02  0.20155E-02  0.24822E-02  0.30888E-02  0.38039E-02  0.45558E-02
  0.52116E-02  0.56369E-02  0.57565E-02  0.54737E-02  0.45255E-02  0.25942E-02
  0.27375E-03  0.29878E-02  0.42536E-02  0.31631E-02  0.10313E-02  0.31631E-02
  0.42536E-02  0.29878E-02  0.27375E-03  0.25942E-02  0.45255E-02  0.54737E-02
  0.57565E-02  0.56369E-02  0.52116E-02  0.45558E-02  0.38039E-02  0.30888E-02
  0.24822E-02  0.20155E-02  0.17073E-02  0.15456E-02  0.14778E-02  0.14414E-02
  0.13789E-02  0.12121E-02  0.84710E-03  0.27974E-03  0.33680E-03  0.63453E-03
  0.97209E-03  0.67455E-03  0.31091E-03  0.18999E-03  0.40272E-03  0.80360E-03
  0.12261E-02  0.15453E-02  0.17380E-02  0.18390E-02  0.18932E-02  0.19534E-02
  0.20857E-02  0.23440E-02  0.27420E-02  0.32627E-02  0.38811E-02  0.45462E-02
  0.51505E-02  0.55617E-02  0.56921E-02  0.54944E-02  0.48752E-02  0.36996E-02
  0.20062E-02  0.27694E-03  0.93419E-03  0.95824E-03  0.37480E-03  0.95824E-03
  0.93419E-03  0.27694E-03  0.20062E-02  0.36996E-02  0.48752E-02  0.54944E-02
  0.56921E-02  0.55617E-02  0.51505E-02  0.45462E-02  0.38811E-02  0.32627E-02
  0.27420E-02  0.23440E-02  0.20857E-02  0.19534E-02  0.18932E-02  0.18390E-02
  0.17380E-02  0.15453E-02  0.12261E-02  0.80360E-03  0.40272E-03  0.18999E-03
  0.25560E-03  0.24209E-03  0.30909E-03  0.43627E-03  0.69828E-03  0.10788E-02
  0.14710E-02  0.17815E-02  0.19791E-02  0.20793E-02  0.21179E-02  0.21465E-02
  0.22300E-02  0.24225E-02  0.27420E-02  0.31743E-02  0.36952E-02  0.42659E-02
  0.48060E-02  0.52010E-02  0.53556E-02  0.52265E-02  0.47930E-02  0.40310E-02
  0.29726E-02  0.18017E-02  0.82849E-03  0.29869E-03  0.18596E-03  0.29869E-03
  0.82849E-03  0.18017E-02  0.29726E-02  0.40310E-02  0.47930E-02  0.52265E-02
  0.53556E-02  0.52010E-02  0.48060E-02  0.42659E-02  0.36952E-02  0.31743E-02
  0.27420E-02  0.24225E-02  0.22300E-02  0.21465E-02  0.21179E-02  0.20793E-02
  0.19791E-02  0.17815E-02  0.14710E-02  0.10788E-02  0.69828E-03  0.43627E-03
  0.12333E-02  0.76065E-03  0.43439E-03  0.39965E-03  0.73164E-03  0.11717E-02
  0.15816E-02  0.18867E-02  0.20657E-02  0.21386E-02  0.21448E-02  0.21343E-02
  0.21646E-02  0.22863E-02  0.25225E-02  0.28644E-02  0.32870E-02  0.37558E-02
  0.42142E-02  0.45767E-02  0.47557E-02  0.46969E-02  0.43870E-02  0.38405E-02
  0.30997E-02  0.22510E-02  0.14145E-02  0.68717E-03  0.21332E-03  0.68717E-03
  0.14145E-02  0.22510E-02  0.30997E-02  0.38405E-02  0.43870E-02  0.46969E-02
  0.47557E-02  0.45767E-02  0.42142E-02  0.37558E-02  0.32870E-02  0.28644E-02
  0.25225E-02  0.22863E-02  0.21646E-02  0.21343E-02  0.21448E-02  0.21386E-02
  0.20657E-02  0.18867E-02  0.15816E-02  0.11717E-02  0.73164E-03  0.39965E-03
  0.19938E-02  0.13116E-02  0.70489E-03  0.30404E-03  0.63815E-03  0.11404E-02
  0.15634E-02  0.18498E-02  0.19950E-02  0.20309E-02  0.20030E-02  0.19574E-02
  0.19406E-02  0.19946E-02  0.21446E-02  0.23901E-02  0.27092E-02  0.30704E-02
  0.34335E-02  0.37428E-02  0.39313E-02  0.39411E-02  0.37438E-02  0.33478E-02
  0.27919E-02  0.21324E-02  0.14269E-02  0.71777E-03  0.11994E-03  0.71777E-03
  0.14269E-02  0.21324E-02  0.27919E-02  0.33478E-02  0.37438E-02  0.39411E-02
  0.39313E-02  0.37428E-02  0.34335E-02  0.30704E-02  0.27092E-02  0.23901E-02
  0.21446E-02  0.19946E-02  0.19406E-02  0.19574E-02  0.20030E-02  0.20309E-02
  0.19950E-02  0.18498E-02  0.15634E-02  0.11404E-02  0.63814E-03  0.30404E-03
  0.24670E-02  0.16882E-02  0.94966E-03  0.31024E-03  0.49684E-03  0.10264E-02
  0.14396E-02  0.16943E-02  0.18008E-02  0.18019E-02  0.17470E-02  0.16778E-02
  0.16279E-02  0.16260E-02  0.16923E-02  0.18331E-02  0.20383E-02  0.22859E-02
  0.25476E-02  0.27886E-02  0.29637E-02  0.30233E-02  0.29294E-02  0.26729E-02
  0.22758E-02  0.17777E-02  0.12169E-02  0.62302E-03  0.10224E-03  0.62302E-03
  0.12169E-02  0.17777E-02  0.22758E-02  0.26729E-02  0.29294E-02  0.30233E-02
  0.29638E-02  0.27886E-02  0.25476E-02  0.22859E-02  0.20383E-02  0.18331E-02
  0.16923E-02  0.16260E-02  0.16279E-02  0.16778E-02  0.17470E-02  0.18019E-02
  0.18008E-02  0.16943E-02  0.14396E-02  0.10264E-02  0.49684E-03  0.31024E-03
  0.26910E-02  0.18855E-02  0.11021E-02  0.38498E-03  0.35915E-03  0.87610E-03
  0.12554E-02  0.14681E-02  0.15371E-02  0.15122E-02  0.14447E-02  0.13715E-02
  0.13150E-02  0.12870E-02  0.12923E-02  0.13334E-02  0.14142E-02  0.15340E-02
  0.16828E-02  0.18407E-02  0.19772E-02  0.20540E-02  0.20355E-02  0.19032E-02
  0.16621E-02  0.13340E-02  0.94664E-03  0.53692E-03  0.26772E-03  0.53692E-03
  0.94664E-03  0.13340E-02  0.16621E-02  0.19032E-02  0.20355E-02  0.20540E-02
  0.19772E-02  0.18407E-02  0.16828E-02  0.15340E-02  0.14142E-02  0.13334E-02
  0.12923E-02  0.12870E-02  0.13150E-02  0.13715E-02  0.14447E-02  0.15122E-02
  0.15371E-02  0.14681E-02  0.12554E-02  0.87610E-03  0.35915E-03  0.38498E-03
  0.27006E-02  0.19089E-02  0.11327E-02  0.42092E-03  0.26795E-03  0.73551E-03
  0.10579E-02  0.12198E-02  0.12557E-02  0.12205E-02  0.11659E-02  0.11256E-02
  0.11133E-02  0.11242E-02  0.11408E-02  0.11464E-02  0.11370E-02  0.11229E-02
  0.11213E-02  0.11433E-02  0.11842E-02  0.12219E-02  0.12279E-02  0.11812E-02
  0.10755E-02  0.91783E-03  0.72629E-03  0.54140E-03  0.45393E-03  0.54140E-03
  0.72629E-03  0.91783E-03  0.10755E-02  0.11812E-02  0.12279E-02  0.12219E-02
  0.11842E-02  0.11433E-02  0.11213E-02  0.11229E-02  0.11370E-02  0.11464E-02
  0.11408E-02  0.11242E-02  0.11133E-02  0.11256E-02  0.11659E-02  0.12205E-02
  0.12557E-02  0.12198E-02  0.10579E-02  0.73551E-03  0.26795E-03  0.42092E-03
  0.25215E-02  0.17674E-02  0.10330E-02  0.37720E-03  0.24668E-03  0.63245E-03
  0.87771E-03  0.98336E-03  0.99616E-03  0.97658E-03  0.97689E-03  0.10256E-02
  0.11212E-02  0.12384E-02  0.13442E-02  0.14119E-02  0.14274E-02  0.13885E-02
  0.13036E-02  0.11911E-02  0.10745E-02  0.97334E-03  0.89462E-03  0.83375E-03
  0.78245E-03  0.73420E-03  0.68760E-03  0.64985E-03  0.63472E-03  0.64985E-03
  0.68760E-03  0.73420E-03  0.78245E-03  0.83375E-03  0.89462E-03  0.97334E-03
  0.10745E-02  0.11911E-02  0.13036E-02  0.13885E-02  0.14274E-02  0.14119E-02
  0.13442E-02  0.12384E-02  0.11212E-02  0.10256E-02  0.97689E-03  0.97658E-03
  0.99616E-03  0.98336E-03  0.87771E-03  0.63245E-03  0.24668E-03  0.37720E-03
  0.21850E-02  0.14860E-02  0.82245E-03  0.27403E-03  0.29338E-03  0.57472E-03
  0.72986E-03  0.78023E-03  0.78743E-03  0.81877E-03  0.91905E-03  0.10933E-02
  0.13146E-02  0.15429E-02  0.17424E-02  0.18894E-02  0.19714E-02  0.19819E-02
  0.19198E-02  0.17944E-02  0.16270E-02  0.14447E-02  0.12694E-02  0.11143E-02
  0.98698E-03  0.89251E-03  0.83147E-03  0.79900E-03  0.78903E-03  0.79900E-03
  0.83147E-03  0.89251E-03  0.98698E-03  0.11143E-02  0.12694E-02  0.14447E-02
  0.16270E-02  0.17944E-02  0.19198E-02  0.19819E-02  0.19714E-02  0.18894E-02
  0.17424E-02  0.15429E-02  0.13146E-02  0.10933E-02  0.91905E-03  0.81877E-03
  0.78743E-03  0.78023E-03  0.72986E-03  0.57472E-03  0.29338E-03  0.27403E-03
  0.17340E-02  0.11096E-02  0.55470E-03  0.23963E-03  0.39902E-03  0.56371E-03
  0.62274E-03  0.62270E-03  0.64525E-03  0.75772E-03  0.97177E-03  0.12598E-02
  0.15817E-02  0.18946E-02  0.21643E-02  0.23717E-02  0.25084E-02  0.25676E-02
  0.25428E-02  0.24357E-02  0.22625E-02  0.20495E-02  0.18211E-02  0.15925E-02
  0.13746E-02  0.11809E-02  0.10286E-02  0.93248E-03  0.89985E-03  0.93248E-03
  0.10286E-02  0.11809E-02  0.13746E-02  0.15925E-02  0.18211E-02  0.20495E-02
  0.22625E-02  0.24357E-02  0.25428E-02  0.25676E-02  0.25084E-02  0.23717E-02
  0.21643E-02  0.18946E-02  0.15817E-02  0.12598E-02  0.97177E-03  0.75772E-03
  0.64525E-03  0.62270E-03  0.62274E-03  0.56371E-03  0.39902E-03  0.23963E-03
  0.12260E-02  0.71438E-03  0.38419E-03  0.41943E-03  0.55603E-03  0.60236E-03
  0.56119E-03  0.50880E-03  0.55998E-03  0.76256E-03  0.10740E-02  0.14467E-02
  0.18384E-02  0.22084E-02  0.25256E-02  0.27736E-02  0.29457E-02  0.30358E-02
  0.30363E-02  0.29460E-02  0.27773E-02  0.25535E-02  0.22967E-02  0.20200E-02
  0.17328E-02  0.14506E-02  0.12010E-02  0.10229E-02  0.95693E-03  0.10229E-02
  0.12010E-02  0.14506E-02  0.17328E-02  0.20200E-02  0.22967E-02  0.25535E-02
  0.27773E-02  0.29460E-02  0.30363E-02  0.30358E-02  0.29457E-02  0.27736E-02
  0.25256E-02  0.22084E-02  0.18384E-02  0.14467E-02  0.10740E-02  0.76256E-03
  0.55998E-03  0.50880E-03  0.56119E-03  0.60236E-03  0.55603E-03  0.41943E-03
  0.75754E-03  0.50218E-03  0.56041E-03  0.70172E-03  0.75400E-03  0.69078E-03
  0.54836E-03  0.42758E-03  0.50484E-03  0.79165E-03  0.11806E-02  0.16129E-02
  0.20474E-02  0.24491E-02  0.27926E-02  0.30626E-02  0.32511E-02  0.33521E-02
  0.33615E-02  0.32804E-02  0.31202E-02  0.28994E-02  0.26339E-02  0.23316E-02
  0.19979E-02  0.16475E-02  0.13140E-02  0.10549E-02  0.95207E-03  0.10549E-02
  0.13140E-02  0.16475E-02  0.19979E-02  0.23316E-02  0.26339E-02  0.28994E-02
  0.31202E-02  0.32804E-02  0.33615E-02  0.33521E-02  0.32511E-02  0.30626E-02
  0.27926E-02  0.24491E-02  0.20474E-02  0.16129E-02  0.11806E-02  0.79165E-03
  0.50484E-03  0.42758E-03  0.54836E-03  0.69078E-03  0.75400E-03  0.70172E-03
  0.57775E-03  0.71798E-03  0.91217E-03  0.10107E-02  0.97544E-03  0.81816E-03
  0.58334E-03  0.37651E-03  0.46420E-03  0.82468E-03  0.12741E-02  0.17459E-02
  0.22009E-02  0.26118E-02  0.29599E-02  0.32313E-02  0.34162E-02  0.35109E-02
  0.35171E-02  0.34405E-02  0.32907E-02  0.30796E-02  0.28159E-02  0.25020E-02
  0.21400E-02  0.17431E-02  0.13456E-02  0.10155E-02  0.87516E-03  0.10155E-02
  0.13456E-02  0.17431E-02  0.21400E-02  0.25020E-02  0.28159E-02  0.30796E-02
  0.32907E-02  0.34405E-02  0.35171E-02  0.35109E-02  0.34162E-02  0.32313E-02
  0.29599E-02  0.26118E-02  0.22009E-02  0.17459E-02  0.12741E-02  0.82467E-03
  0.46420E-03  0.37651E-03  0.58334E-03  0.81816E-03  0.97544E-03  0.10107E-02
  0.83458E-03  0.10945E-02  0.12691E-02  0.13053E-02  0.11954E-02  0.96250E-03
  0.65189E-03  0.36108E-03  0.44152E-03  0.86019E-03  0.13526E-02  0.18460E-02
  0.23033E-02  0.27040E-02  0.30352E-02  0.32849E-02  0.34460E-02  0.35208E-02
  0.35178E-02  0.34444E-02  0.33045E-02  0.31023E-02  0.28417E-02  0.25236E-02
  0.21487E-02  0.17270E-02  0.12879E-02  0.89824E-03  0.71745E-03  0.89824E-03
  0.12879E-02  0.17270E-02  0.21487E-02  0.25236E-02  0.28417E-02  0.31023E-02
  0.33045E-02  0.34444E-02  0.35178E-02  0.35208E-02  0.34460E-02  0.32849E-02
  0.30352E-02  0.27040E-02  0.23033E-02  0.18460E-02  0.13526E-02  0.86019E-03
  0.44152E-03  0.36108E-03  0.65189E-03  0.96250E-03  0.11954E-02  0.13053E-02
  0.11632E-02  0.14096E-02  0.15461E-02  0.15386E-02  0.13820E-02  0.10978E-02
  0.73032E-03  0.37471E-03  0.44312E-03  0.90153E-03  0.14181E-02  0.19161E-02
  0.23604E-02  0.27345E-02  0.30290E-02  0.32361E-02  0.33559E-02  0.34006E-02
  0.33841E-02  0.33101E-02  0.31745E-02  0.29759E-02  0.27183E-02  0.24043E-02
  0.20328E-02  0.16080E-02  0.11518E-02  0.71840E-03  0.48872E-03  0.71840E-03
  0.11518E-02  0.16080E-02  0.20328E-02  0.24043E-02  0.27183E-02  0.29759E-02
  0.31745E-02  0.33101E-02  0.33841E-02  0.34006E-02  0.33559E-02  0.32361E-02
  0.30290E-02  0.27345E-02  0.23604E-02  0.19161E-02  0.14181E-02  0.90153E-03
  0.44312E-03  0.37471E-03  0.73033E-03  0.10978E-02  0.13820E-02  0.15386E-02
  0.13082E-02  0.15151E-02  0.16400E-02  0.16415E-02  0.14936E-02  0.11994E-02
  0.79917E-03  0.39885E-03  0.46397E-03  0.94847E-03  0.14734E-02  0.19606E-02
  0.23781E-02  0.27117E-02  0.29542E-02  0.31036E-02  0.31710E-02  0.31783E-02
  0.31406E-02  0.30554E-02  0.29126E-02  0.27116E-02  0.24600E-02  0.21586E-02
  0.18002E-02  0.13871E-02  0.94606E-03  0.52469E-03  0.27317E-03  0.52469E-03
  0.94606E-03  0.13871E-02  0.18002E-02  0.21586E-02  0.24600E-02  0.27116E-02
  0.29126E-02  0.30554E-02  0.31406E-02  0.31783E-02  0.31710E-02  0.31036E-02
  0.29542E-02  0.27117E-02  0.23781E-02  0.19606E-02  0.14734E-02  0.94847E-03
  0.46397E-03  0.39885E-03  0.79917E-03  0.11994E-02  0.14936E-02  0.16415E-02
  0.10839E-02  0.12536E-02  0.14224E-02  0.15231E-02  0.14778E-02  0.12437E-02
  0.84836E-03  0.41890E-03  0.48893E-03  0.99573E-03  0.15206E-02  0.19867E-02
  0.23665E-02  0.26486E-02  0.28286E-02  0.29128E-02  0.29233E-02  0.28876E-02
  0.28176E-02  0.27052E-02  0.25420E-02  0.23336E-02  0.20855E-02  0.17847E-02
  0.14151E-02  0.10018E-02  0.62848E-03  0.39646E-03  0.33162E-03  0.39646E-03
  0.62848E-03  0.10018E-02  0.14151E-02  0.17847E-02  0.20855E-02  0.23336E-02
  0.25420E-02  0.27052E-02  0.28176E-02  0.28876E-02  0.29233E-02  0.29128E-02
  0.28286E-02  0.26486E-02  0.23665E-02  0.19867E-02  0.15206E-02  0.99573E-03
  0.48893E-03  0.41890E-03  0.84836E-03  0.12437E-02  0.14778E-02  0.15231E-02
  0.78015E-03  0.87777E-03  0.97410E-03  0.11627E-02  0.13025E-02  0.12160E-02
  0.87570E-03  0.42690E-03  0.49980E-03  0.10355E-02  0.15613E-02  0.20032E-02
  0.23399E-02  0.25638E-02  0.26764E-02  0.26935E-02  0.26462E-02  0.25627E-02
  0.24491E-02  0.22956E-02  0.21022E-02  0.18774E-02  0.16069E-02  0.12436E-02
  0.77503E-03  0.36174E-03  0.41951E-03  0.56991E-03  0.60201E-03  0.56991E-03
  0.41951E-03  0.36174E-03  0.77503E-03  0.12436E-02  0.16069E-02  0.18774E-02
  0.21022E-02  0.22956E-02  0.24491E-02  0.25627E-02  0.26462E-02  0.26935E-02
  0.26764E-02  0.25638E-02  0.23399E-02  0.20032E-02  0.15613E-02  0.10355E-02
  0.49980E-03  0.42690E-03  0.87570E-03  0.12160E-02  0.13025E-02  0.11627E-02
  0.21185E-02  0.20737E-02  0.15545E-02  0.10485E-02  0.10632E-02  0.11400E-02
  0.89376E-03  0.42445E-03  0.48262E-03  0.10619E-02  0.15963E-02  0.20171E-02
  0.23108E-02  0.24762E-02  0.25222E-02  0.24749E-02  0.23713E-02  0.22370E-02
  0.20721E-02  0.18707E-02  0.16416E-02  0.13819E-02  0.10279E-02  0.48267E-03
  0.32017E-03  0.10435E-02  0.14122E-02  0.12403E-02  0.96482E-03  0.12403E-02
  0.14122E-02  0.10435E-02  0.32017E-03  0.48267E-03  0.10279E-02  0.13819E-02
  0.16416E-02  0.18707E-02  0.20721E-02  0.22370E-02  0.23713E-02  0.24749E-02
  0.25222E-02  0.24762E-02  0.23108E-02  0.20171E-02  0.15963E-02  0.10619E-02
  0.48262E-03  0.42445E-03  0.89376E-03  0.11400E-02  0.10632E-02  0.10485E-02
  0.44093E-02  0.42693E-02  0.32226E-02  0.18427E-02  0.10454E-02  0.10837E-02
  0.93206E-03  0.43307E-03  0.43629E-03  0.10744E-02  0.16257E-02  0.20305E-02
  0.22857E-02  0.23985E-02  0.23858E-02  0.22818E-02  0.21268E-02  0.19421E-02
  0.17251E-02  0.14768E-02  0.12094E-02  0.88812E-03  0.37648E-03  0.51606E-03
  0.16927E-02  0.27412E-02  0.30226E-02  0.22439E-02  0.13388E-02  0.22439E-02
  0.30226E-02  0.27412E-02  0.16927E-02  0.51606E-03  0.37648E-03  0.88812E-03
  0.12094E-02  0.14768E-02  0.17251E-02  0.19421E-02  0.21268E-02  0.22818E-02
  0.23858E-02  0.23985E-02  0.22857E-02  0.20305E-02  0.16257E-02  0.10744E-02
  0.43629E-03  0.43307E-03  0.93206E-03  0.10837E-02  0.10454E-02  0.18427E-02
  0.68153E-02  0.65471E-02  0.49830E-02  0.28657E-02  0.12712E-02  0.10668E-02
  0.99838E-03  0.47323E-03  0.37636E-03  0.10781E-02  0.16488E-02  0.20418E-02
  0.22660E-02  0.23375E-02  0.22801E-02  0.21327E-02  0.19362E-02  0.17078E-02
  0.14452E-02  0.11569E-02  0.85170E-03  0.45116E-03  0.29914E-03  0.15581E-02
  0.32310E-02  0.46207E-02  0.47879E-02  0.32975E-02  0.15333E-02  0.32975E-02
  0.47879E-02  0.46207E-02  0.32310E-02  0.15581E-02  0.29914E-03  0.45116E-03
  0.85170E-03  0.11569E-02  0.14452E-02  0.17078E-02  0.19362E-02  0.21327E-02
  0.22801E-02  0.23375E-02  0.22660E-02  0.20418E-02  0.16488E-02  0.10781E-02
  0.37636E-03  0.47323E-03  0.99838E-03  0.10668E-02  0.12712E-02  0.28657E-02
  0.86313E-02  0.82388E-02  0.62666E-02  0.36005E-02  0.14519E-02  0.10414E-02
  0.10588E-02  0.52454E-03  0.32738E-03  0.10785E-02  0.16642E-02  0.20491E-02
  0.22526E-02  0.22979E-02  0.22131E-02  0.20392E-02  0.18158E-02  0.15576E-02
  0.12632E-02  0.94704E-03  0.61151E-03  0.14433E-03  0.78521E-03  0.23827E-02
  0.44561E-02  0.61124E-02  0.61739E-02  0.40842E-02  0.14652E-02  0.40842E-02
  0.61739E-02  0.61124E-02  0.44561E-02  0.23827E-02  0.78521E-03  0.14433E-03
  0.61151E-03  0.94704E-03  0.12632E-02  0.15576E-02  0.18158E-02  0.20392E-02
  0.22131E-02  0.22979E-02  0.22526E-02  0.20491E-02  0.16642E-02  0.10785E-02
  0.32738E-03  0.52454E-03  0.10588E-02  0.10414E-02  0.14519E-02  0.36005E-02
  0.93060E-02  0.88610E-02  0.67314E-02  0.38581E-02  0.15033E-02  0.10198E-02
  0.10817E-02  0.54739E-03  0.30886E-03  0.10785E-02  0.16696E-02  0.20516E-02
  0.22477E-02  0.22841E-02  0.21901E-02  0.20074E-02  0.17748E-02  0.15059E-02
  0.12001E-02  0.87359E-03  0.52571E-03  0.40527E-04  0.97060E-03  0.26982E-02
  0.49258E-02  0.66827E-02  0.67002E-02  0.43732E-02  0.13632E-02  0.43732E-02
  0.67002E-02  0.66827E-02  0.49258E-02  0.26982E-02  0.97060E-03  0.40527E-04
  0.52571E-03  0.87359E-03  0.12001E-02  0.15059E-02  0.17748E-02  0.20074E-02
  0.21901E-02  0.22841E-02  0.22477E-02  0.20516E-02  0.16696E-02  0.10785E-02
  0.30886E-03  0.54739E-03  0.10817E-02  0.10198E-02  0.15033E-02  0.38581E-02
  0.86313E-02  0.82388E-02  0.62666E-02  0.36005E-02  0.14519E-02  0.10414E-02
  0.10588E-02  0.52454E-03  0.32738E-03  0.10785E-02  0.16642E-02  0.20491E-02
  0.22526E-02  0.22979E-02  0.22131E-02  0.20392E-02  0.18158E-02  0.15576E-02
  0.12632E-02  0.94704E-03  0.61151E-03  0.14433E-03  0.78521E-03  0.23827E-02
  0.44561E-02  0.61124E-02  0.61739E-02  0.40842E-02  0.14652E-02  0.40842E-02
  0.61739E-02  0.61124E-02  0.44561E-02  0.23827E-02  0.78521E-03  0.14433E-03
  0.61151E-03  0.94704E-03  0.12632E-02  0.15576E-02  0.18158E-02  0.20392E-02
  0.22131E-02  0.22979E-02  0.22526E-02  0.20491E-02  0.16642E-02  0.10785E-02
  0.32738E-03  0.52454E-03  0.10588E-02  0.10414E-02  0.14519E-02  0.36005E-02
  0.68153E-02  0.65471E-02  0.49830E-02  0.28657E-02  0.12712E-02  0.10668E-02
  0.99838E-03  0.47323E-03  0.37636E-03  0.10781E-02  0.16488E-02  0.20418E-02
  0.22660E-02  0.23375E-02  0.22801E-02  0.21327E-02  0.19362E-02  0.17078E-02
  0.14452E-02  0.11569E-02  0.85170E-03  0.45116E-03  0.29914E-03  0.15581E-02
  0.32310E-02  0.46207E-02  0.47879E-02  0.32975E-02  0.15333E-02  0.32975E-02
  0.47879E-02  0.46207E-02  0.32310E-02  0.15581E-02  0.29914E-03  0.45116E-03
  0.85170E-03  0.11569E-02  0.14452E-02  0.17078E-02  0.19362E-02  0.21327E-02
  0.22801E-02  0.23375E-02  0.22660E-02  0.20418E-02  0.16488E-02  0.10781E-02
  0.37636E-03  0.47323E-03  0.99838E-03  0.10668E-02  0.12712E-02  0.28657E-02
  0.44093E-02  0.42693E-02  0.32226E-02  0.18427E-02  0.10454E-02  0.10837E-02
  0.93206E-03  0.43307E-03  0.43629E-03  0.10744E-02  0.16257E-02  0.20305E-02
  0.22857E-02  0.23985E-02  0.23858E-02  0.22818E-02  0.21268E-02  0.19421E-02
  0.17251E-02  0.14768E-02  0.12094E-02  0.88812E-03  0.37648E-03  0.51606E-03
  0.16927E-02  0.27412E-02  0.30226E-02  0.22439E-02  0.13388E-02  0.22439E-02
  0.30226E-02  0.27412E-02  0.16927E-02  0.51606E-03  0.37648E-03  0.88812E-03
  0.12094E-02  0.14768E-02  0.17251E-02  0.19421E-02  0.21268E-02  0.22818E-02
  0.23858E-02  0.23985E-02  0.22857E-02  0.20305E-02  0.16257E-02  0.10744E-02
  0.43629E-03  0.43307E-03  0.93206E-03  0.10837E-02  0.10454E-02  0.18427E-02
  0.21185E-02  0.20737E-02  0.15545E-02  0.10485E-02  0.10632E-02  0.11400E-02
  0.89376E-03  0.42445E-03  0.48262E-03  0.10619E-02  0.15963E-02  0.20171E-02
  0.23108E-02  0.24762E-02  0.25222E-02  0.24749E-02  0.23713E-02  0.22370E-02
  0.20721E-02  0.18707E-02  0.16416E-02  0.13819E-02  0.10279E-02  0.48267E-03
  0.32017E-03  0.10435E-02  0.14122E-02  0.12403E-02  0.96482E-03  0.12403E-02
  0.14122E-02  0.10435E-02  0.32017E-03  0.48267E-03  0.10279E-02  0.13819E-02
  0.16416E-02  0.18707E-02  0.20721E-02  0.22370E-02  0.23713E-02  0.24749E-02
  0.25222E-02  0.24762E-02  0.23108E-02  0.20171E-02  0.15963E-02  0.10619E-02
  0.48262E-03  0.42445E-03  0.89376E-03  0.11400E-02  0.10632E-02  0.10485E-02
  0.78015E-03  0.87777E-03  0.97410E-03  0.11627E-02  0.13025E-02  0.12160E-02
  0.87570E-03  0.42690E-03  0.49980E-03  0.10355E-02  0.15613E-02  0.20032E-02
  0.23399E-02  0.25638E-02  0.26764E-02  0.26935E-02  0.26462E-02  0.25627E-02
  0.24491E-02  0.22956E-02  0.21022E-02  0.18774E-02  0.16069E-02  0.12436E-02
  0.77503E-03  0.36174E-03  0.41951E-03  0.56991E-03  0.60201E-03  0.56991E-03
  0.41951E-03  0.36174E-03  0.77503E-03  0.12436E-02  0.16069E-02  0.18774E-02
  0.21022E-02  0.22956E-02  0.24491E-02  0.25627E-02  0.26462E-02  0.26935E-02
  0.26764E-02  0.25638E-02  0.23399E-02  0.20032E-02  0.15613E-02  0.10355E-02
  0.49980E-03  0.42690E-03  0.87570E-03  0.12160E-02  0.13025E-02  0.11627E-02
  0.10839E-02  0.12536E-02  0.14224E-02  0.15231E-02  0.14778E-02  0.12437E-02
  0.84836E-03  0.41890E-03  0.48893E-03  0.99573E-03  0.15206E-02  0.19867E-02
  0.23665E-02  0.26486E-02  0.28286E-02  0.29128E-02  0.29233E-02  0.28876E-02
  0.28176E-02  0.27052E-02  0.25420E-02  0.23336E-02  0.20855E-02  0.17847E-02
  0.14151E-02  0.10018E-02  0.62848E-03  0.39646E-03  0.33162E-03  0.39646E-03
  0.62848E-03  0.10018E-02  0.14151E-02  0.17847E-02  0.20855E-02  0.23336E-02
  0.25420E-02  0.27052E-02  0.28176E-02  0.28876E-02  0.29233E-02  0.29128E-02
  0.28286E-02  0.26486E-02  0.23665E-02  0.19867E-02  0.15206E-02  0.99573E-03
  0.48893E-03  0.41890E-03  0.84836E-03  0.12437E-02  0.14778E-02  0.15231E-02
  0.13082E-02  0.15151E-02  0.16400E-02  0.16415E-02  0.14936E-02  0.11994E-02
  0.79917E-03  0.39885E-03  0.46397E-03  0.94847E-03  0.14734E-02  0.19606E-02
  0.23781E-02  0.27117E-02  0.29542E-02  0.31036E-02  0.31710E-02  0.31783E-02
  0.31406E-02  0.30554E-02  0.29126E-02  0.27116E-02  0.24600E-02  0.21586E-02
  0.18002E-02  0.13871E-02  0.94606E-03  0.52469E-03  0.27317E-03  0.52469E-03
  0.94606E-03  0.13871E-02  0.18002E-02  0.21586E-02  0.24600E-02  0.27116E-02
  0.29126E-02  0.30554E-02  0.31406E-02  0.31783E-02  0.31710E-02  0.31036E-02
  0.29542E-02  0.27117E-02  0.23781E-02  0.19606E-02  0.14734E-02  0.94847E-03
  0.46397E-03  0.39885E-03  0.79917E-03  0.11994E-02  0.14936E-02  0.16415E-02
  0.11632E-02  0.14096E-02  0.15461E-02  0.15386E-02  0.13820E-02  0.10978E-02
  0.73032E-03  0.37471E-03  0.44312E-03  0.90153E-03  0.14181E-02  0.19161E-02
  0.23604E-02  0.27345E-02  0.30290E-02  0.32361E-02  0.33559E-02  0.34006E-02
  0.33841E-02  0.33101E-02  0.31745E-02  0.29759E-02  0.27183E-02  0.24043E-02
  0.20328E-02  0.16080E-02  0.11518E-02  0.71840E-03  0.48872E-03  0.71840E-03
  0.11518E-02  0.16080E-02  0.20328E-02  0.24043E-02  0.27183E-02  0.29759E-02
  0.31745E-02  0.33101E-02  0.33841E-02  0.34006E-02  0.33559E-02  0.32361E-02
  0.30290E-02  0.27345E-02  0.23604E-02  0.19161E-02  0.14181E-02  0.90154E-03
  0.44312E-03  0.37471E-03  0.73032E-03  0.10978E-02  0.13820E-02  0.15386E-02
  0.83458E-03  0.10945E-02  0.12691E-02  0.13053E-02  0.11954E-02  0.96250E-03
  0.65189E-03  0.36108E-03  0.44152E-03  0.86019E-03  0.13526E-02  0.18460E-02
  0.23033E-02  0.27040E-02  0.30352E-02  0.32849E-02  0.34460E-02  0.35208E-02
  0.35178E-02  0.34444E-02  0.33045E-02  0.31023E-02  0.28417E-02  0.25236E-02
  0.21487E-02  0.17270E-02  0.12879E-02  0.89824E-03  0.71745E-03  0.89824E-03
  0.12879E-02  0.17270E-02  0.21487E-02  0.25236E-02  0.28417E-02  0.31023E-02
  0.33045E-02  0.34444E-02  0.35178E-02  0.35208E-02  0.34460E-02  0.32849E-02
  0.30352E-02  0.27040E-02  0.23033E-02  0.18460E-02  0.13526E-02  0.86019E-03
  0.44152E-03  0.36108E-03  0.65189E-03  0.96250E-03  0.11954E-02  0.13053E-02
  0.57775E-03  0.71798E-03  0.91217E-03  0.10107E-02  0.97544E-03  0.81816E-03
  0.58334E-03  0.37651E-03  0.46420E-03  0.82468E-03  0.12741E-02  0.17459E-02
  0.22009E-02  0.26118E-02  0.29599E-02  0.32313E-02  0.34162E-02  0.35109E-02
  0.35171E-02  0.34405E-02  0.32907E-02  0.30796E-02  0.28159E-02  0.25020E-02
  0.21400E-02  0.17431E-02  0.13456E-02  0.10155E-02  0.87516E-03  0.10155E-02
  0.13456E-02  0.17431E-02  0.21400E-02  0.25020E-02  0.28159E-02  0.30796E-02
  0.32907E-02  0.34405E-02  0.35171E-02  0.35109E-02  0.34162E-02  0.32313E-02
  0.29599E-02  0.26118E-02  0.22009E-02  0.17459E-02  0.12741E-02  0.82468E-03
  0.46420E-03  0.37651E-03  0.58334E-03  0.81816E-03  0.97544E-03  0.10107E-02
  0.75754E-03  0.50218E-03  0.56041E-03  0.70172E-03  0.75400E-03  0.69078E-03
  0.54836E-03  0.42758E-03  0.50484E-03  0.79165E-03  0.11806E-02  0.16129E-02
  0.20474E-02  0.24491E-02  0.27926E-02  0.30626E-02  0.32511E-02  0.33521E-02
  0.33615E-02  0.32804E-02  0.31202E-02  0.28994E-02  0.26339E-02  0.23316E-02
  0.19979E-02  0.16475E-02  0.13140E-02  0.10549E-02  0.95207E-03  0.10549E-02
  0.13140E-02  0.16475E-02  0.19979E-02  0.23316E-02  0.26339E-02  0.28994E-02
  0.31202E-02  0.32804E-02  0.33615E-02  0.33521E-02  0.32511E-02  0.30626E-02
  0.27926E-02  0.24491E-02  0.20474E-02  0.16129E-02  0.11806E-02  0.79165E-03
  0.50484E-03  0.42758E-03  0.54836E-03  0.69077E-03  0.75400E-03  0.70172E-03
  0.12260E-02  0.71438E-03  0.38419E-03  0.41943E-03  0.55603E-03  0.60236E-03
  0.56119E-03  0.50880E-03  0.55998E-03  0.76256E-03  0.10740E-02  0.14467E-02
  0.18384E-02  0.22084E-02  0.25256E-02  0.27736E-02  0.29457E-02  0.30358E-02
  0.30363E-02  0.29460E-02  0.27773E-02  0.25535E-02  0.22967E-02  0.20200E-02
  0.17328E-02  0.14506E-02  0.12010E-02  0.10229E-02  0.95693E-03  0.10229E-02
  0.12010E-02  0.14506E-02  0.17328E-02  0.20200E-02  0.22967E-02  0.25535E-02
  0.27773E-02  0.29460E-02  0.30363E-02  0.30358E-02  0.29457E-02  0.27736E-02
  0.25256E-02  0.22084E-02  0.18384E-02  0.14467E-02  0.10740E-02  0.76256E-03
  0.55998E-03  0.50880E-03  0.56119E-03  0.60236E-03  0.55603E-03  0.41943E-03
  0.17340E-02  0.11096E-02  0.55470E-03  0.23963E-03  0.39902E-03  0.56371E-03