       #
       # Generated by the Wannier90 code http://www.wannier.org
       # On 10May2024 at 21:04:43 
       #
CRYSTAL
PRIMVEC
   2.7281430   0.0000000   0.0000000
   0.0000000   2.7281430   0.0000000
   0.0000000   0.0000000   3.7789840
CONVVEC
   2.7281430   0.0000000   0.0000000
   0.0000000   2.7281430   0.0000000
   0.0000000   0.0000000   3.7789840
PRIMCOORD
     2  1
Fe      0.0000000   0.0000000   0.0000000
Pt      1.3640715   1.3640715   1.8894920


BEGIN_BLOCK_DATAGRID_3D
3D_field
BEGIN_DATAGRID_3D_UNKNOWN
    54    54    80
   -2.829185   -2.829185   -3.873459
   5.3552437   0.0000000   0.0000000
   0.0000000   5.3552437   0.0000000
   0.0000000   0.0000000   7.4634934
  0.71682E-02  0.50742E-02  0.23923E-02  0.12405E-02  0.17179E-02  0.15147E-02
  0.91482E-03  0.50143E-03  0.45677E-03  0.56389E-03  0.70659E-03  0.85176E-03
  0.99911E-03  0.11409E-02  0.12468E-02  0.12863E-02  0.12494E-02  0.11494E-02
  0.10048E-02  0.81735E-03  0.58631E-03  0.38288E-03  0.47340E-03  0.11495E-02
  0.23302E-02  0.35251E-02  0.39765E-02  0.32420E-02  0.19351E-02  0.21705E-02
  0.30352E-02  0.29444E-02  0.20220E-02  0.10175E-02  0.98212E-03  0.15003E-02
  0.18699E-02  0.20449E-02  0.20803E-02  0.20429E-02  0.19865E-02  0.19479E-02
  0.19479E-02  0.19865E-02  0.20429E-02  0.20803E-02  0.20449E-02  0.18699E-02
  0.15003E-02  0.98212E-03  0.10175E-02  0.20220E-02  0.29444E-02  0.30351E-02
  0.50742E-02  0.26111E-02  0.13510E-02  0.27876E-02  0.30722E-02  0.22323E-02
  0.11127E-02  0.44896E-03  0.38309E-03  0.43527E-03  0.57398E-03  0.78264E-03
  0.10223E-02  0.12592E-02  0.14492E-02  0.15578E-02  0.15744E-02  0.15098E-02
  0.13775E-02  0.11762E-02  0.90147E-03  0.60727E-03  0.57553E-03  0.12231E-02
  0.23258E-02  0.33007E-02  0.33710E-02  0.21126E-02  0.65938E-03  0.26058E-02
  0.37837E-02  0.35631E-02  0.23838E-02  0.11589E-02  0.10481E-02  0.15584E-02
  0.18906E-02  0.20164E-02  0.20055E-02  0.19321E-02  0.18535E-02  0.18055E-02
  0.18055E-02  0.18535E-02  0.19321E-02  0.20055E-02  0.20164E-02  0.18906E-02
  0.15584E-02  0.10481E-02  0.11589E-02  0.23838E-02  0.35631E-02  0.37837E-02
  0.23923E-02  0.13510E-02  0.32646E-02  0.43487E-02  0.38842E-02  0.24386E-02
  0.97757E-03  0.35570E-03  0.43405E-03  0.35136E-03  0.39972E-03  0.67612E-03
  0.10192E-02  0.13528E-02  0.16249E-02  0.18039E-02  0.18816E-02  0.18655E-02
  0.17660E-02  0.15834E-02  0.13126E-02  0.97557E-03  0.69967E-03  0.10032E-02
  0.19316E-02  0.28360E-02  0.31242E-02  0.28307E-02  0.31039E-02  0.40972E-02
  0.44785E-02  0.37213E-02  0.22531E-02  0.10243E-02  0.11643E-02  0.16549E-02
  0.18942E-02  0.19304E-02  0.18502E-02  0.17292E-02  0.16232E-02  0.15635E-02
  0.15635E-02  0.16232E-02  0.17292E-02  0.18502E-02  0.19304E-02  0.18942E-02
  0.16549E-02  0.11643E-02  0.10243E-02  0.22531E-02  0.37213E-02  0.44785E-02
  0.12404E-02  0.27876E-02  0.43487E-02  0.46569E-02  0.36160E-02  0.19165E-02
  0.49523E-03  0.52264E-03  0.62760E-03  0.39104E-03  0.21270E-03  0.56082E-03
  0.10047E-02  0.14256E-02  0.17718E-02  0.20167E-02  0.21540E-02  0.21888E-02
  0.21307E-02  0.19846E-02  0.17458E-02  0.14098E-02  0.98427E-03  0.69582E-03
  0.12894E-02  0.22791E-02  0.31212E-02  0.37633E-02  0.43754E-02  0.47358E-02
  0.43513E-02  0.31321E-02  0.15889E-02  0.88319E-03  0.14373E-02  0.18206E-02
  0.19085E-02  0.18179E-02  0.16440E-02  0.14595E-02  0.13156E-02  0.12390E-02
  0.12390E-02  0.13156E-02  0.14595E-02  0.16440E-02  0.18179E-02  0.19086E-02
  0.18206E-02  0.14374E-02  0.88319E-03  0.15889E-02  0.31321E-02  0.43513E-02
  0.17178E-02  0.30722E-02  0.38842E-02  0.36160E-02  0.23942E-02  0.87056E-03
  0.40948E-03  0.89251E-03  0.85124E-03  0.51379E-03  0.10615E-03  0.47602E-03
  0.99442E-03  0.14810E-02  0.18870E-02  0.21890E-02  0.23809E-02  0.24655E-02
  0.24529E-02  0.23530E-02  0.21633E-02  0.18676E-02  0.14364E-02  0.84356E-03
  0.57122E-03  0.14770E-02  0.25590E-02  0.34668E-02  0.40040E-02  0.39489E-02
  0.31713E-02  0.18710E-02  0.82095E-03  0.12870E-02  0.18506E-02  0.20287E-02
  0.19358E-02  0.17029E-02  0.14206E-02  0.11574E-02  0.96374E-03  0.86427E-03
  0.86427E-03  0.96374E-03  0.11574E-02  0.14206E-02  0.17029E-02  0.19358E-02
  0.20287E-02  0.18506E-02  0.12870E-02  0.82095E-03  0.18710E-02  0.31713E-02
  0.15147E-02  0.22323E-02  0.24386E-02  0.19165E-02  0.87056E-03  0.30383E-03
  0.99214E-03  0.11966E-02  0.10116E-02  0.62878E-03  0.21501E-03  0.46686E-03
  0.10071E-02  0.15260E-02  0.19683E-02  0.23122E-02  0.25495E-02  0.26791E-02
  0.27105E-02  0.26561E-02  0.25163E-02  0.22768E-02  0.19139E-02  0.13926E-02
  0.72062E-03  0.58630E-03  0.14177E-02  0.21580E-02  0.24812E-02  0.22341E-02
  0.14851E-02  0.81416E-03  0.13108E-02  0.19681E-02  0.22597E-02  0.22128E-02
  0.19551E-02  0.15953E-02  0.12096E-02  0.86318E-03  0.61309E-03  0.48946E-03
  0.48946E-03  0.61310E-03  0.86318E-03  0.12096E-02  0.15953E-02  0.19551E-02
  0.22128E-02  0.22597E-02  0.19681E-02  0.13108E-02  0.81416E-03  0.14851E-02
  0.91481E-03  0.11127E-02  0.97757E-03  0.49523E-03  0.40948E-03  0.99214E-03
  0.13191E-02  0.13082E-02  0.10551E-02  0.67920E-03  0.33159E-03  0.54211E-03
  0.10585E-02  0.15723E-02  0.20200E-02  0.23812E-02  0.26445E-02  0.28031E-02
  0.28639E-02  0.28400E-02  0.27357E-02  0.25455E-02  0.22648E-02  0.18875E-02
  0.14132E-02  0.92096E-03  0.71529E-03  0.90060E-03  0.10192E-02  0.96084E-03
  0.10937E-02  0.16243E-02  0.21924E-02  0.25227E-02  0.25474E-02  0.23249E-02
  0.19490E-02  0.14983E-02  0.10352E-02  0.62174E-03  0.32321E-03  0.19004E-03
  0.19004E-03  0.32321E-03  0.62174E-03  0.10352E-02  0.14983E-02  0.19490E-02
  0.23249E-02  0.25474E-02  0.25227E-02  0.21924E-02  0.16243E-02  0.10937E-02
  0.50143E-03  0.44896E-03  0.35570E-03  0.52264E-03  0.89251E-03  0.11966E-02
  0.13082E-02  0.12152E-02  0.97118E-03  0.64665E-03  0.41935E-03  0.66959E-03
  0.11469E-02  0.16246E-02  0.20458E-02  0.23929E-02  0.26506E-02  0.28071E-02
  0.28677E-02  0.28477E-02  0.27571E-02  0.26003E-02  0.23887E-02  0.21376E-02
  0.18587E-02  0.15787E-02  0.13674E-02  0.13049E-02  0.14122E-02  0.16769E-02
  0.20634E-02  0.24675E-02  0.27535E-02  0.28310E-02  0.26856E-02  0.23603E-02
  0.19179E-02  0.14176E-02  0.91517E-03  0.47105E-03  0.15657E-03  0.10705E-03
  0.10705E-03  0.15657E-03  0.47105E-03  0.91517E-03  0.14176E-02  0.19179E-02
  0.23603E-02  0.26856E-02  0.28310E-02  0.27535E-02  0.24675E-02  0.20634E-02
  0.45677E-03  0.38309E-03  0.43405E-03  0.62759E-03  0.85124E-03  0.10116E-02
  0.10551E-02  0.97118E-03  0.78320E-03  0.55775E-03  0.51631E-03  0.82201E-03
  0.12517E-02  0.16698E-02  0.20354E-02  0.23337E-02  0.25476E-02  0.26641E-02
  0.26897E-02  0.26452E-02  0.25479E-02  0.24100E-02  0.22492E-02  0.20878E-02
  0.19433E-02  0.18325E-02  0.17869E-02  0.18461E-02  0.20254E-02  0.22970E-02
  0.25968E-02  0.28446E-02  0.29686E-02  0.29255E-02  0.27090E-02  0.23462E-02
  0.18833E-02  0.13737E-02  0.87305E-03  0.44252E-03  0.16702E-03  0.15932E-03
  0.15932E-03  0.16702E-03  0.44252E-03  0.87305E-03  0.13737E-02  0.18833E-02
  0.23462E-02  0.27090E-02  0.29255E-02  0.29686E-02  0.28446E-02  0.25968E-02
  0.56389E-03  0.43527E-03  0.35136E-03  0.39104E-03  0.51379E-03  0.62878E-03
  0.67920E-03  0.64665E-03  0.55775E-03  0.51563E-03  0.66900E-03  0.98680E-03
  0.13486E-02  0.16830E-02  0.19630E-02  0.21771E-02  0.23112E-02  0.23552E-02
  0.23192E-02  0.22291E-02  0.21095E-02  0.19776E-02  0.18502E-02  0.17466E-02
  0.16835E-02  0.16755E-02  0.17411E-02  0.18953E-02  0.21307E-02  0.24093E-02
  0.26748E-02  0.28708E-02  0.29521E-02  0.28893E-02  0.26754E-02  0.23298E-02
  0.18938E-02  0.14202E-02  0.96641E-03  0.59421E-03  0.36975E-03  0.30624E-03
  0.30624E-03  0.36975E-03  0.59421E-03  0.96641E-03  0.14202E-02  0.18938E-02
  0.23298E-02  0.26754E-02  0.28893E-02  0.29521E-02  0.28708E-02  0.26748E-02
  0.70659E-03  0.57398E-03  0.39972E-03  0.21270E-03  0.10615E-03  0.21501E-03
  0.33159E-03  0.41935E-03  0.51631E-03  0.66900E-03  0.89151E-03  0.11577E-02
  0.14214E-02  0.16432E-02  0.18051E-02  0.19015E-02  0.19264E-02  0.18768E-02
  0.17645E-02  0.16169E-02  0.14628E-02  0.13237E-02  0.12146E-02  0.11490E-02
  0.11401E-02  0.12019E-02  0.13468E-02  0.15766E-02  0.18713E-02  0.21904E-02
  0.24846E-02  0.27080E-02  0.28236E-02  0.28071E-02  0.26529E-02  0.23796E-02
  0.20252E-02  0.16388E-02  0.12729E-02  0.97896E-03  0.79281E-03  0.71279E-03
  0.71279E-03  0.79281E-03  0.97897E-03  0.12729E-02  0.16388E-02  0.20252E-02
  0.23796E-02  0.26529E-02  0.28071E-02  0.28236E-02  0.27080E-02  0.24846E-02
  0.85176E-03  0.78264E-03  0.67613E-03  0.56082E-03  0.47602E-03  0.46686E-03
  0.54211E-03  0.66959E-03  0.82201E-03  0.98680E-03  0.11577E-02  0.13230E-02
  0.14588E-02  0.15403E-02  0.15560E-02  0.15088E-02  0.14045E-02  0.12480E-02
  0.10516E-02  0.84002E-03  0.64585E-03  0.49966E-03  0.42148E-03  0.41143E-03
  0.45898E-03  0.57136E-03  0.76984E-03  0.10593E-02  0.14173E-02  0.18032E-02
  0.21699E-02  0.24730E-02  0.26764E-02  0.27592E-02  0.27194E-02  0.25739E-02
  0.23526E-02  0.20933E-02  0.18371E-02  0.16226E-02  0.14758E-02  0.14042E-02
  0.14042E-02  0.14758E-02  0.16226E-02  0.18371E-02  0.20933E-02  0.23526E-02
  0.25739E-02  0.27194E-02  0.27592E-02  0.26764E-02  0.24730E-02  0.21699E-02
  0.99911E-03  0.10223E-02  0.10192E-02  0.10047E-02  0.99442E-03  0.10071E-02
  0.10585E-02  0.11469E-02  0.12517E-02  0.13486E-02  0.14214E-02  0.14588E-02
  0.14468E-02  0.13704E-02  0.12256E-02  0.10231E-02  0.77907E-03  0.50707E-03
  0.22154E-03  0.10003E-03  0.34926E-03  0.56305E-03  0.70983E-03  0.77525E-03
  0.75063E-03  0.64498E-03  0.52972E-03  0.59594E-03  0.91548E-03  0.13560E-02
  0.18189E-02  0.22416E-02  0.25810E-02  0.28148E-02  0.29400E-02  0.29661E-02
  0.29114E-02  0.28011E-02  0.26665E-02  0.25389E-02  0.24427E-02  0.23919E-02
  0.23919E-02  0.24427E-02  0.25389E-02  0.26665E-02  0.28011E-02  0.29114E-02
  0.29661E-02  0.29400E-02  0.28148E-02  0.25810E-02  0.22416E-02  0.18189E-02
  0.11409E-02  0.12592E-02  0.13528E-02  0.14256E-02  0.14810E-02  0.15260E-02
  0.15723E-02  0.16246E-02  0.16698E-02  0.16830E-02  0.16432E-02  0.15403E-02
  0.13704E-02  0.11313E-02  0.82648E-03  0.47197E-03  0.11049E-03  0.31971E-03
  0.69720E-03  0.10536E-02  0.13650E-02  0.16075E-02  0.17608E-02  0.18074E-02
  0.17310E-02  0.15236E-02  0.12011E-02  0.83354E-03  0.65692E-03  0.95785E-03
  0.14975E-02  0.20656E-02  0.25813E-02  0.30093E-02  0.33372E-02  0.35630E-02
  0.36935E-02  0.37459E-02  0.37456E-02  0.37180E-02  0.36848E-02  0.36630E-02
  0.36630E-02  0.36848E-02  0.37180E-02  0.37456E-02  0.37459E-02  0.36935E-02
  0.35630E-02  0.33372E-02  0.30093E-02  0.25813E-02  0.20656E-02  0.14975E-02
  0.12468E-02  0.14492E-02  0.16249E-02  0.17718E-02  0.18870E-02  0.19683E-02
  0.20200E-02  0.20458E-02  0.20354E-02  0.19630E-02  0.18051E-02  0.15560E-02
  0.12256E-02  0.82648E-03  0.37198E-03  0.16621E-03  0.66739E-03  0.11731E-02
  0.16478E-02  0.20745E-02  0.24339E-02  0.27035E-02  0.28630E-02  0.28938E-02
  0.27763E-02  0.24975E-02  0.20659E-02  0.15215E-02  0.96865E-03  0.77774E-03
  0.12617E-02  0.19735E-02  0.26883E-02  0.33378E-02  0.38924E-02  0.43360E-02
  0.46652E-02  0.48920E-02  0.50372E-02  0.51201E-02  0.51581E-02  0.51698E-02
  0.51698E-02  0.51581E-02  0.51201E-02  0.50372E-02  0.48920E-02  0.46652E-02
  0.43360E-02  0.38924E-02  0.33378E-02  0.26883E-02  0.19735E-02  0.12617E-02
  0.12863E-02  0.15578E-02  0.18039E-02  0.20167E-02  0.21890E-02  0.23122E-02
  0.23812E-02  0.23929E-02  0.23337E-02  0.21771E-02  0.19015E-02  0.15088E-02
  0.10231E-02  0.47197E-03  0.16621E-03  0.78526E-03  0.14242E-02  0.20360E-02
  0.25973E-02  0.30917E-02  0.34981E-02  0.37914E-02  0.39505E-02  0.39580E-02
  0.37949E-02  0.34462E-02  0.29168E-02  0.22398E-02  0.14860E-02  0.89071E-03
  0.11329E-02  0.19658E-02  0.28878E-02  0.37709E-02  0.45643E-02  0.52368E-02
  0.57744E-02  0.61835E-02  0.64799E-02  0.66774E-02  0.67893E-02  0.68360E-02
  0.68360E-02  0.67893E-02  0.66774E-02  0.64800E-02  0.61835E-02  0.57744E-02
  0.52368E-02  0.45643E-02  0.37709E-02  0.28878E-02  0.19658E-02  0.11329E-02
  0.12494E-02  0.15744E-02  0.18816E-02  0.21540E-02  0.23809E-02  0.25495E-02
  0.26445E-02  0.26506E-02  0.25476E-02  0.23112E-02  0.19264E-02  0.14045E-02
  0.77907E-03  0.11049E-03  0.66739E-03  0.14242E-02  0.21686E-02  0.28686E-02
  0.35043E-02  0.40586E-02  0.45044E-02  0.48098E-02  0.49535E-02  0.49239E-02
  0.47077E-02  0.42900E-02  0.36715E-02  0.28797E-02  0.19715E-02  0.11146E-02
  0.10748E-02  0.20152E-02  0.31468E-02  0.42635E-02  0.52952E-02  0.61975E-02
  0.69452E-02  0.75368E-02  0.79829E-02  0.82933E-02  0.84794E-02  0.85622E-02
  0.85622E-02  0.84794E-02  0.82933E-02  0.79829E-02  0.75368E-02  0.69452E-02
  0.61975E-02  0.52952E-02  0.42635E-02  0.31468E-02  0.20152E-02  0.10748E-02
  0.11494E-02  0.15098E-02  0.18655E-02  0.21888E-02  0.24655E-02  0.26791E-02
  0.28031E-02  0.28071E-02  0.26641E-02  0.23552E-02  0.18768E-02  0.12480E-02
  0.50707E-03  0.31971E-03  0.11731E-02  0.20360E-02  0.28686E-02  0.36411E-02
  0.43355E-02  0.49314E-02  0.53945E-02  0.56892E-02  0.57992E-02  0.57234E-02
  0.54552E-02  0.49788E-02  0.42896E-02  0.34076E-02  0.23771E-02  0.13262E-02
  0.10306E-02  0.20776E-02  0.34130E-02  0.47501E-02  0.60056E-02  0.71256E-02
  0.80738E-02  0.88387E-02  0.94257E-02  0.98433E-02  0.10103E-01  0.10223E-01
  0.10223E-01  0.10103E-01  0.98433E-02  0.94257E-02  0.88387E-02  0.80738E-02
  0.71256E-02  0.60056E-02  0.47501E-02  0.34130E-02  0.20776E-02  0.10306E-02
  0.10048E-02  0.13775E-02  0.17660E-02  0.21307E-02  0.24529E-02  0.27105E-02
  0.28639E-02  0.28677E-02  0.26897E-02  0.23192E-02  0.17645E-02  0.10516E-02
  0.22154E-03  0.69720E-03  0.16478E-02  0.25973E-02  0.35043E-02  0.43355E-02
  0.50678E-02  0.56753E-02  0.61231E-02  0.63828E-02  0.64493E-02  0.63296E-02
  0.60176E-02  0.54942E-02  0.47519E-02  0.38067E-02  0.26915E-02  0.14991E-02
  0.96758E-03  0.21065E-02  0.36223E-02  0.51510E-02  0.66007E-02  0.79114E-02
  0.90373E-02  0.99565E-02  0.10669E-01  0.11184E-01  0.11511E-01  0.11668E-01
  0.11668E-01  0.11511E-01  0.11184E-01  0.10669E-01  0.99565E-02  0.90373E-02
  0.79114E-02  0.66007E-02  0.51510E-02  0.36223E-02  0.21065E-02  0.96758E-03
  0.81735E-03  0.11762E-02  0.15834E-02  0.19846E-02  0.23530E-02  0.26561E-02
  0.28400E-02  0.28477E-02  0.26452E-02  0.22291E-02  0.16169E-02  0.84002E-03
  0.10003E-03  0.10536E-02  0.20745E-02  0.30917E-02  0.40586E-02  0.49314E-02
  0.56753E-02  0.62621E-02  0.66675E-02  0.68791E-02  0.68997E-02  0.67327E-02
  0.63666E-02  0.57856E-02  0.49935E-02  0.40136E-02  0.28674E-02  0.16061E-02
  0.86974E-03  0.20617E-02  0.37128E-02  0.53890E-02  0.69896E-02  0.84487E-02
  0.97144E-02  0.10758E-01  0.11573E-01  0.12168E-01  0.12551E-01  0.12736E-01
  0.12736E-01  0.12551E-01  0.12168E-01  0.11573E-01  0.10758E-01  0.97144E-02
  0.84487E-02  0.69896E-02  0.53890E-02  0.37128E-02  0.20617E-02  0.86974E-03
  0.58631E-03  0.90147E-03  0.13125E-02  0.17458E-02  0.21633E-02  0.25163E-02
  0.27357E-02  0.27571E-02  0.25479E-02  0.21095E-02  0.14628E-02  0.64585E-03
  0.34926E-03  0.13650E-02  0.24339E-02  0.34981E-02  0.45044E-02  0.53945E-02
  0.61231E-02  0.66675E-02  0.70200E-02  0.71765E-02  0.71306E-02  0.68728E-02
  0.63984E-02  0.57240E-02  0.48909E-02  0.39356E-02  0.28551E-02  0.16382E-02
  0.73378E-03  0.18932E-02  0.36191E-02  0.53934E-02  0.70966E-02  0.86516E-02
  0.10005E-01  0.11128E-01  0.12014E-01  0.12664E-01  0.13083E-01  0.13285E-01
  0.13285E-01  0.13083E-01  0.12664E-01  0.12014E-01  0.11128E-01  0.10005E-01
  0.86516E-02  0.70966E-02  0.53934E-02  0.36191E-02  0.18932E-02  0.73378E-03
  0.38288E-03  0.60727E-03  0.97557E-03  0.14098E-02  0.18676E-02  0.22768E-02
  0.25456E-02  0.26003E-02  0.24100E-02  0.19776E-02  0.13237E-02  0.49966E-03
  0.56305E-03  0.16075E-02  0.27035E-02  0.37914E-02  0.48098E-02  0.56892E-02
  0.63828E-02  0.68791E-02  0.71765E-02  0.72539E-02  0.70774E-02  0.66383E-02
  0.59834E-02  0.52083E-02  0.44079E-02  0.36108E-02  0.27510E-02  0.17244E-02
  0.67440E-03  0.15128E-02  0.32471E-02  0.50815E-02  0.68511E-02  0.84544E-02
  0.98378E-02  0.10987E-01  0.11903E-01  0.12579E-01  0.13013E-01  0.13219E-01
  0.13219E-01  0.13013E-01  0.12579E-01  0.11903E-01  0.10987E-01  0.98378E-02
  0.84544E-02  0.68511E-02  0.50815E-02  0.32471E-02  0.15128E-02  0.67441E-03
  0.47340E-03  0.57553E-03  0.69967E-03  0.98427E-03  0.14364E-02  0.19139E-02
  0.22648E-02  0.23887E-02  0.22492E-02  0.18502E-02  0.12146E-02  0.42149E-03
  0.70983E-03  0.17608E-02  0.28630E-02  0.39505E-02  0.49535E-02  0.57992E-02
  0.64493E-02  0.68997E-02  0.71306E-02  0.70774E-02  0.66826E-02  0.59843E-02
  0.51424E-02  0.43639E-02  0.37799E-02  0.33489E-02  0.28714E-02  0.21331E-02
  0.10745E-02  0.86793E-03  0.25014E-02  0.43689E-02  0.61862E-02  0.78082E-02
  0.91763E-02  0.10300E-01  0.11201E-01  0.11873E-01  0.12303E-01  0.12506E-01
  0.12506E-01  0.12303E-01  0.11873E-01  0.11201E-01  0.10300E-01  0.91763E-02
  0.78082E-02  0.61862E-02  0.43689E-02  0.25014E-02  0.86793E-03  0.10745E-02
  0.11495E-02  0.12231E-02  0.10032E-02  0.69582E-03  0.84356E-03  0.13926E-02
  0.18875E-02  0.21376E-02  0.20878E-02  0.17466E-02  0.11490E-02  0.41143E-03
  0.77525E-03  0.18074E-02  0.28938E-02  0.39580E-02  0.49239E-02  0.57234E-02
  0.63296E-02  0.67327E-02  0.68728E-02  0.66383E-02  0.59843E-02  0.50541E-02
  0.41576E-02  0.36210E-02  0.35589E-02  0.36878E-02  0.35789E-02  0.30001E-02
  0.19522E-02  0.65497E-03  0.14215E-02  0.32577E-02  0.50858E-02  0.67022E-02
  0.80261E-02  0.90849E-02  0.99299E-02  0.10568E-01  0.10981E-01  0.11175E-01
  0.11175E-01  0.10981E-01  0.10568E-01  0.99299E-02  0.90849E-02  0.80261E-02
  0.67022E-02  0.50858E-02  0.32577E-02  0.14215E-02  0.65498E-03  0.19522E-02
  0.23302E-02  0.23258E-02  0.19316E-02  0.12894E-02  0.57122E-03  0.72062E-03
  0.14132E-02  0.18587E-02  0.19433E-02  0.16835E-02  0.11401E-02  0.45898E-03
  0.75063E-03  0.17310E-02  0.27763E-02  0.37949E-02  0.47078E-02  0.54552E-02
  0.60176E-02  0.63666E-02  0.63984E-02  0.59834E-02  0.51424E-02  0.41576E-02
  0.35086E-02  0.36423E-02  0.43491E-02  0.48709E-02  0.47150E-02  0.38955E-02
  0.26938E-02  0.13172E-02  0.32583E-03  0.19462E-02  0.36595E-02  0.52042E-02
  0.64513E-02  0.74160E-02  0.81719E-02  0.87476E-02  0.91272E-02  0.93080E-02
  0.93080E-02  0.91272E-02  0.87476E-02  0.81719E-02  0.74160E-02  0.64513E-02
  0.52042E-02  0.36595E-02  0.19462E-02  0.32583E-03  0.13172E-02  0.26938E-02
  0.35251E-02  0.33007E-02  0.28360E-02  0.22791E-02  0.14770E-02  0.58630E-03
  0.92096E-03  0.15787E-02  0.18325E-02  0.16755E-02  0.12019E-02  0.57136E-03
  0.64498E-03  0.15236E-02  0.24975E-02  0.34462E-02  0.42900E-02  0.49788E-02
  0.54943E-02  0.57856E-02  0.57240E-02  0.52083E-02  0.43639E-02  0.36210E-02
  0.36423E-02  0.46520E-02  0.57831E-02  0.60558E-02  0.52086E-02  0.37678E-02
  0.24537E-02  0.14639E-02  0.57244E-03  0.85166E-03  0.21561E-02  0.34777E-02
  0.45822E-02  0.54214E-02  0.60616E-02  0.65507E-02  0.68814E-02  0.70432E-02
  0.70432E-02  0.68814E-02  0.65507E-02  0.60616E-02  0.54214E-02  0.45822E-02
  0.34777E-02  0.21560E-02  0.85166E-03  0.57244E-03  0.14639E-02  0.24537E-02
  0.39765E-02  0.33710E-02  0.31242E-02  0.31212E-02  0.25590E-02  0.14177E-02
  0.71529E-03  0.13674E-02  0.17869E-02  0.17411E-02  0.13468E-02  0.76984E-03
  0.52972E-03  0.12011E-02  0.20659E-02  0.29168E-02  0.36715E-02  0.42896E-02
  0.47520E-02  0.49935E-02  0.48910E-02  0.44079E-02  0.37799E-02  0.35589E-02
  0.43491E-02  0.57831E-02  0.65934E-02  0.58530E-02  0.38517E-02  0.23188E-02
  0.24250E-02  0.23001E-02  0.15383E-02  0.75413E-03  0.88477E-03  0.17534E-02
  0.26129E-02  0.32844E-02  0.37879E-02  0.41742E-02  0.44451E-02  0.45830E-02
  0.45830E-02  0.44451E-02  0.41742E-02  0.37878E-02  0.32844E-02  0.26129E-02
  0.17534E-02  0.88476E-03  0.75413E-03  0.15383E-02  0.23001E-02  0.24250E-02
  0.32420E-02  0.21126E-02  0.28307E-02  0.37632E-02  0.34668E-02  0.21580E-02
  0.90060E-03  0.13049E-02  0.18461E-02  0.18953E-02  0.15766E-02  0.10593E-02
  0.59594E-03  0.83354E-03  0.15215E-02  0.22398E-02  0.28797E-02  0.34076E-02
  0.38067E-02  0.40136E-02  0.39356E-02  0.36108E-02  0.33489E-02  0.36878E-02
  0.48709E-02  0.60558E-02  0.58530E-02  0.36874E-02  0.22359E-02  0.47958E-02
  0.61294E-02  0.52604E-02  0.31832E-02  0.13175E-02  0.48769E-03  0.57164E-03
  0.95815E-03  0.13573E-02  0.16769E-02  0.19332E-02  0.21273E-02  0.22336E-02
  0.22336E-02  0.21273E-02  0.19332E-02  0.16769E-02  0.13573E-02  0.95814E-03
  0.57164E-03  0.48769E-03  0.13175E-02  0.31833E-02  0.52605E-02  0.61295E-02
  0.19351E-02  0.65938E-03  0.31039E-02  0.43754E-02  0.40040E-02  0.24812E-02
  0.10192E-02  0.14122E-02  0.20254E-02  0.21307E-02  0.18713E-02  0.14173E-02
  0.91548E-03  0.65691E-03  0.96865E-03  0.14860E-02  0.19715E-02  0.23771E-02
  0.26915E-02  0.28674E-02  0.28551E-02  0.27510E-02  0.28714E-02  0.35789E-02
  0.47150E-02  0.52086E-02  0.38517E-02  0.22359E-02  0.61455E-02  0.98180E-02
  0.10622E-01  0.84499E-02  0.48299E-02  0.17226E-02  0.10530E-02  0.14946E-02
  0.15320E-02  0.14439E-02  0.13453E-02  0.12504E-02  0.11853E-02  0.11601E-02
  0.11601E-02  0.11853E-02  0.12504E-02  0.13453E-02  0.14439E-02  0.15320E-02
  0.14946E-02  0.10530E-02  0.17226E-02  0.48299E-02  0.84499E-02  0.10622E-01
  0.21704E-02  0.26058E-02  0.40972E-02  0.47358E-02  0.39489E-02  0.22341E-02
  0.96084E-03  0.16769E-02  0.22970E-02  0.24093E-02  0.21904E-02  0.18032E-02
  0.13560E-02  0.95784E-03  0.77773E-03  0.89071E-03  0.11146E-02  0.13262E-02
  0.14991E-02  0.16061E-02  0.16382E-02  0.17244E-02  0.21331E-02  0.30001E-02
  0.38955E-02  0.37678E-02  0.23188E-02  0.47958E-02  0.98180E-02  0.13216E-01
  0.13203E-01  0.99986E-02  0.53965E-02  0.15792E-02  0.16875E-02  0.26372E-02
  0.29082E-02  0.29084E-02  0.28174E-02  0.26842E-02  0.25573E-02  0.24841E-02
  0.24841E-02  0.25573E-02  0.26842E-02  0.28174E-02  0.29084E-02  0.29082E-02
  0.26372E-02  0.16875E-02  0.15792E-02  0.53965E-02  0.99986E-02  0.13203E-01
  0.30351E-02  0.37837E-02  0.44785E-02  0.43513E-02  0.31713E-02  0.14851E-02
  0.10937E-02  0.20634E-02  0.25968E-02  0.26748E-02  0.24846E-02  0.21699E-02
  0.18189E-02  0.14975E-02  0.12617E-02  0.11329E-02  0.10748E-02  0.10306E-02
  0.96757E-03  0.86974E-03  0.73377E-03  0.67440E-03  0.10745E-02  0.19522E-02
  0.26938E-02  0.24537E-02  0.24250E-02  0.61294E-02  0.10622E-01  0.13203E-01
  0.12515E-01  0.89778E-02  0.43355E-02  0.90138E-03  0.24952E-02  0.36269E-02
  0.40260E-02  0.41085E-02  0.40541E-02  0.39327E-02  0.38096E-02  0.37380E-02
  0.37380E-02  0.38097E-02  0.39327E-02  0.40541E-02  0.41085E-02  0.40260E-02
  0.36269E-02  0.24952E-02  0.90138E-03  0.43355E-02  0.89778E-02  0.12515E-01
  0.29444E-02  0.35631E-02  0.37213E-02  0.31321E-02  0.18710E-02  0.81416E-03
  0.16243E-02  0.24675E-02  0.28446E-02  0.28708E-02  0.27080E-02  0.24730E-02
  0.22416E-02  0.20656E-02  0.19735E-02  0.19658E-02  0.20152E-02  0.20776E-02
  0.21065E-02  0.20617E-02  0.18932E-02  0.15128E-02  0.86793E-03  0.65497E-03
  0.13172E-02  0.14639E-02  0.23001E-02  0.52604E-02  0.84499E-02  0.99986E-02
  0.89778E-02  0.58373E-02  0.20053E-02  0.14659E-02  0.34485E-02  0.44298E-02
  0.48013E-02  0.48805E-02  0.48091E-02  0.46669E-02  0.45321E-02  0.44572E-02
  0.44572E-02  0.45321E-02  0.46669E-02  0.48091E-02  0.48805E-02  0.48013E-02
  0.44299E-02  0.34485E-02  0.14659E-02  0.20053E-02  0.58373E-02  0.89778E-02
  0.20220E-02  0.23838E-02  0.22531E-02  0.15889E-02  0.82095E-03  0.13108E-02
  0.21924E-02  0.27535E-02  0.29686E-02  0.29521E-02  0.28236E-02  0.26764E-02
  0.25810E-02  0.25813E-02  0.26883E-02  0.28878E-02  0.31468E-02  0.34130E-02
  0.36223E-02  0.37128E-02  0.36191E-02  0.32471E-02  0.25014E-02  0.14215E-02
  0.32583E-03  0.57244E-03  0.15383E-02  0.31832E-02  0.48299E-02  0.53965E-02
  0.43355E-02  0.20053E-02  0.83441E-03  0.29731E-02  0.43335E-02  0.49910E-02
  0.52197E-02  0.52098E-02  0.50597E-02  0.48551E-02  0.46823E-02  0.45911E-02
  0.45911E-02  0.46823E-02  0.48551E-02  0.50597E-02  0.52098E-02  0.52197E-02
  0.49910E-02  0.43336E-02  0.29731E-02  0.83441E-03  0.20053E-02  0.43355E-02
  0.10175E-02  0.11589E-02  0.10243E-02  0.88319E-03  0.12870E-02  0.19681E-02
  0.25227E-02  0.28310E-02  0.29255E-02  0.28893E-02  0.28071E-02  0.27592E-02
  0.28149E-02  0.30093E-02  0.33378E-02  0.37709E-02  0.42635E-02  0.47501E-02
  0.51510E-02  0.53890E-02  0.53934E-02  0.50815E-02  0.43689E-02  0.32577E-02
  0.19462E-02  0.85166E-03  0.75413E-03  0.13175E-02  0.17226E-02  0.15792E-02
  0.90138E-03  0.14659E-02  0.29731E-02  0.42132E-02  0.49527E-02  0.52638E-02
  0.52879E-02  0.51233E-02  0.48442E-02  0.45414E-02  0.43044E-02  0.41813E-02
  0.41813E-02  0.43044E-02  0.45414E-02  0.48442E-02  0.51233E-02  0.52879E-02
  0.52638E-02  0.49527E-02  0.42132E-02  0.29731E-02  0.14659E-02  0.90138E-03
  0.98212E-03  0.10481E-02  0.11643E-02  0.14373E-02  0.18506E-02  0.22597E-02
  0.25474E-02  0.26856E-02  0.27090E-02  0.26754E-02  0.26529E-02  0.27194E-02
  0.29400E-02  0.33372E-02  0.38924E-02  0.45643E-02  0.52952E-02  0.60056E-02
  0.66007E-02  0.69896E-02  0.70966E-02  0.68511E-02  0.61862E-02  0.50858E-02
  0.36595E-02  0.21561E-02  0.88477E-03  0.48769E-03  0.10530E-02  0.16875E-02
  0.24952E-02  0.34485E-02  0.43336E-02  0.49527E-02  0.52424E-02  0.52472E-02
  0.50390E-02  0.46801E-02  0.42427E-02  0.38198E-02  0.34985E-02  0.33296E-02
  0.33296E-02  0.34985E-02  0.38198E-02  0.42427E-02  0.46801E-02  0.50390E-02
  0.52473E-02  0.52424E-02  0.49527E-02  0.43336E-02  0.34485E-02  0.24952E-02
  0.15003E-02  0.15584E-02  0.16549E-02  0.18206E-02  0.20287E-02  0.22128E-02
  0.23249E-02  0.23603E-02  0.23462E-02  0.23298E-02  0.23796E-02  0.25739E-02
  0.29661E-02  0.35630E-02  0.43360E-02  0.52368E-02  0.61975E-02  0.71256E-02
  0.79114E-02  0.84487E-02  0.86516E-02  0.84544E-02  0.78082E-02  0.67022E-02
  0.52042E-02  0.34777E-02  0.17534E-02  0.57164E-03  0.14946E-02  0.26372E-02
  0.36269E-02  0.44298E-02  0.49910E-02  0.52638E-02  0.52472E-02  0.49842E-02
  0.45363E-02  0.39718E-02  0.33705E-02  0.28204E-02  0.24011E-02  0.21731E-02
  0.21731E-02  0.24011E-02  0.28204E-02  0.33705E-02  0.39718E-02  0.45363E-02
  0.49842E-02  0.52473E-02  0.52638E-02  0.49910E-02  0.44298E-02  0.36269E-02
  0.18699E-02  0.18906E-02  0.18942E-02  0.19086E-02  0.19358E-02  0.19551E-02
  0.19490E-02  0.19179E-02  0.18833E-02  0.18938E-02  0.20252E-02  0.23526E-02
  0.29114E-02  0.36935E-02  0.46652E-02  0.57744E-02  0.69452E-02  0.80738E-02
  0.90373E-02  0.97144E-02  0.10005E-01  0.98378E-02  0.91763E-02  0.80261E-02
  0.64513E-02  0.45822E-02  0.26129E-02  0.95815E-03  0.15320E-02  0.29082E-02
  0.40260E-02  0.48013E-02  0.52197E-02  0.52879E-02  0.50390E-02  0.45363E-02
  0.38638E-02  0.31117E-02  0.23665E-02  0.17028E-02  0.11796E-02  0.86494E-03
  0.86494E-03  0.11796E-02  0.17028E-02  0.23665E-02  0.31117E-02  0.38638E-02
  0.45363E-02  0.50390E-02  0.52879E-02  0.52197E-02  0.48013E-02  0.40260E-02
  0.20449E-02  0.20164E-02  0.19304E-02  0.18179E-02  0.17029E-02  0.15953E-02
  0.14983E-02  0.14176E-02  0.13737E-02  0.14202E-02  0.16388E-02  0.20933E-02
  0.28011E-02  0.37459E-02  0.48920E-02  0.61835E-02  0.75368E-02  0.88387E-02
  0.99565E-02  0.10758E-01  0.11128E-01  0.10987E-01  0.10300E-01  0.90849E-02
  0.74160E-02  0.54214E-02  0.32844E-02  0.13573E-02  0.14439E-02  0.29084E-02
  0.41085E-02  0.48805E-02  0.52098E-02  0.51233E-02  0.46801E-02  0.39718E-02
  0.31117E-02  0.22165E-02  0.13959E-02  0.76830E-03  0.50042E-03  0.53328E-03
  0.53328E-03  0.50041E-03  0.76830E-03  0.13959E-02  0.22165E-02  0.31117E-02
  0.39718E-02  0.46801E-02  0.51233E-02  0.52098E-02  0.48805E-02  0.41085E-02
  0.20803E-02  0.20055E-02  0.18502E-02  0.16440E-02  0.14206E-02  0.12096E-02
  0.10352E-02  0.91517E-03  0.87305E-03  0.96641E-03  0.12729E-02  0.18371E-02
  0.26665E-02  0.37456E-02  0.50372E-02  0.64799E-02  0.79829E-02  0.94257E-02
  0.10669E-01  0.11573E-01  0.12014E-01  0.11903E-01  0.11201E-01  0.99299E-02
  0.81719E-02  0.60616E-02  0.37878E-02  0.16769E-02  0.13453E-02  0.28174E-02
  0.40541E-02  0.48091E-02  0.50597E-02  0.48442E-02  0.42427E-02  0.33705E-02
  0.23665E-02  0.13959E-02  0.78410E-03  0.10088E-02  0.14696E-02  0.17439E-02
  0.17439E-02  0.14696E-02  0.10088E-02  0.78410E-03  0.13959E-02  0.23665E-02
  0.33705E-02  0.42427E-02  0.48442E-02  0.50597E-02  0.48091E-02  0.40541E-02
  0.20429E-02  0.19321E-02  0.17292E-02  0.14595E-02  0.11574E-02  0.86318E-03
  0.62174E-03  0.47105E-03  0.44252E-03  0.59421E-03  0.97897E-03  0.16226E-02
  0.25389E-02  0.37180E-02  0.51201E-02  0.66774E-02  0.82933E-02  0.98433E-02
  0.11184E-01  0.12168E-01  0.12664E-01  0.12579E-01  0.11873E-01  0.10568E-01
  0.87476E-02  0.65507E-02  0.41742E-02  0.19332E-02  0.12504E-02  0.26842E-02
  0.39327E-02  0.46669E-02  0.48551E-02  0.45414E-02  0.38198E-02  0.28204E-02
  0.17028E-02  0.76830E-03  0.10088E-02  0.18022E-02  0.24254E-02  0.27561E-02
  0.27561E-02  0.24254E-02  0.18022E-02  0.10088E-02  0.76830E-03  0.17028E-02
  0.28204E-02  0.38198E-02  0.45414E-02  0.48551E-02  0.46669E-02  0.39327E-02
  0.19865E-02  0.18535E-02  0.16232E-02  0.13156E-02  0.96374E-03  0.61310E-03
  0.32322E-03  0.15657E-03  0.16702E-03  0.36975E-03  0.79281E-03  0.14758E-02
  0.24427E-02  0.36848E-02  0.51581E-02  0.67893E-02  0.84794E-02  0.10103E-01
  0.11511E-01  0.12551E-01  0.13083E-01  0.13013E-01  0.12303E-01  0.10981E-01
  0.91272E-02  0.68814E-02  0.44451E-02  0.21273E-02  0.11852E-02  0.25573E-02
  0.38096E-02  0.45321E-02  0.46823E-02  0.43044E-02  0.34985E-02  0.24011E-02
  0.11796E-02  0.50041E-03  0.14696E-02  0.24254E-02  0.31132E-02  0.34693E-02
  0.34693E-02  0.31132E-02  0.24254E-02  0.14696E-02  0.50041E-03  0.11796E-02
  0.24011E-02  0.34985E-02  0.43044E-02  0.46823E-02  0.45321E-02  0.38097E-02
  0.19479E-02  0.18055E-02  0.15635E-02  0.12390E-02  0.86427E-03  0.48946E-03