
     Program PWSCF v.7.1 starts on 15Nov2022 at  8: 3: 7 

     This program is part of the open-source Quantum ESPRESSO suite
     for quantum simulation of materials; please cite
         "P. Giannozzi et al., J. Phys.:Condens. Matter 21 395502 (2009);
         "P. Giannozzi et al., J. Phys.:Condens. Matter 29 465901 (2017);
         "P. Giannozzi et al., J. Chem. Phys. 152 154105 (2020);
          URL http://www.quantum-espresso.org", 
     in publications or presentations arising from this work. More details at
     http://www.quantum-espresso.org/quote

     Parallel version (MPI), running on    12 processors

     MPI processes distributed on     1 nodes
     375553 MiB available memory on the printing compute node when the environment starts
 
     Waiting for input...
     Reading input from standard input

     Current dimensions of program PWSCF are:
     Max number of different atomic species (ntypx) = 10
     Max number of k-points (npk) =  40000
     Max angular momentum in pseudopotentials (lmaxx) =  4
     file Ni.rel-pbe-n-rrkjus_psl.0.1.UPF: wavefunction(s)  3D renormalized

     Fixed quantization axis for GGA:     0.000000    0.000000    1.000000
 
     K-points division:     npool     =       3
     R & G space division:  proc/nbgrp/npool/nimage =       4
     Subspace diagonalization in iterative solution of the eigenvalue problem:
     a serial algorithm will be used

 
     Parallelization info
     --------------------
     sticks:   dense  smooth     PW     G-vecs:    dense   smooth      PW
     Min         347     113     36                13995     2612     472
     Max         348     115     37                14000     2613     474
     Sum        1389     457    145                55993    10451    1891
 
     Using Slab Decomposition
 


     bravais-lattice index     =            6
     lattice parameter (alat)  =       4.7368  a.u.
     unit-cell volume          =     151.8494 (a.u.)^3
     number of atoms/cell      =            2
     number of atomic types    =            2
     number of electrons       =        26.00
     number of Kohn-Sham states=           34
     kinetic-energy cutoff     =      64.0000  Ry
     charge density cutoff     =     782.0000  Ry
     Exchange-correlation= PBE
                           (   1   4   3   4   0   0   0)
     Noncollinear calculation with spin-orbit


     celldm(1)=   4.736808  celldm(2)=   0.000000  celldm(3)=   1.428748
     celldm(4)=   0.000000  celldm(5)=   0.000000  celldm(6)=   0.000000

     crystal axes: (cart. coord. in units of alat)
               a(1) = (   1.000000   0.000000   0.000000 )  
               a(2) = (   0.000000   1.000000   0.000000 )  
               a(3) = (   0.000000   0.000000   1.428748 )  

     reciprocal axes: (cart. coord. in units 2 pi/alat)
               b(1) = (  1.000000  0.000000  0.000000 )  
               b(2) = (  0.000000  1.000000  0.000000 )  
               b(3) = (  0.000000  0.000000  0.699913 )  


     PseudoPot. # 1 for Fe read from file:
     /home4/koretsune/PWSCF/pseudo_psl031/Fe.rel-pbe-spn-rrkjus_psl.0.2.1.UPF
     MD5 check sum: e4688d448a4fb973b820eb5309e921a0
     Pseudo is Ultrasoft + core correction, Zval = 16.0
     Generated using "atomic" code by A. Dal Corso  v.5.0.99 svn rev. 10869
     Using radial grid of 1191 points, 10 beta functions with: 
                l(1) =   0
                l(2) =   0
                l(3) =   1
                l(4) =   1
                l(5) =   1
                l(6) =   1
                l(7) =   2
                l(8) =   2
                l(9) =   2
               l(10) =   2
     Q(r) pseudized with 0 coefficients 


     PseudoPot. # 2 for Ni read from file:
     /home4/koretsune/PWSCF/pseudo_psl031/Ni.rel-pbe-n-rrkjus_psl.0.1.UPF
     MD5 check sum: 6acd078e557c765e7fbba3d1e9889675
     Pseudo is Ultrasoft + core correction, Zval = 10.0
     Generated using "atomic" code by A. Dal Corso  v.5.0.99 svn rev. 10869
     Using radial grid of 1195 points, 10 beta functions with: 
                l(1) =   0
                l(2) =   0
                l(3) =   1
                l(4) =   1
                l(5) =   1
                l(6) =   1
                l(7) =   2
                l(8) =   2
                l(9) =   2
               l(10) =   2
     Q(r) pseudized with 0 coefficients 


     atomic species   valence    mass     pseudopotential
        Fe            16.00    55.84500     Fe( 1.00)
        Ni            10.00    58.69340     Ni( 1.00)

     16 Sym. Ops., with inversion, found


                                    s                        frac. trans.

      isym =  1     identity                                     

 Time Reversal            0
 cryst.   s( 1) = (     1          0          0      )
                  (     0          1          0      )
                  (     0          0          1      )

 cart.    s( 1) = (  1.0000000  0.0000000  0.0000000 )
                  (  0.0000000  1.0000000  0.0000000 )
                  (  0.0000000  0.0000000  1.0000000 )


      isym =  2     180 deg rotation - cart. axis [0,0,1]        

 Time Reversal            0
 cryst.   s( 2) = (    -1          0          0      )
                  (     0         -1          0      )
                  (     0          0          1      )

 cart.    s( 2) = ( -1.0000000  0.0000000  0.0000000 )
                  (  0.0000000 -1.0000000  0.0000000 )
                  (  0.0000000  0.0000000  1.0000000 )


      isym =  3     180 deg rotation - cart. axis [0,1,0]        

 Time Reversal            1
 cryst.   s( 3) = (    -1          0          0      )
                  (     0          1          0      )
                  (     0          0         -1      )

 cart.    s( 3) = ( -1.0000000  0.0000000  0.0000000 )
                  (  0.0000000  1.0000000  0.0000000 )
                  (  0.0000000  0.0000000 -1.0000000 )


      isym =  4     180 deg rotation - cart. axis [1,0,0]        

 Time Reversal            1
 cryst.   s( 4) = (     1          0          0      )
                  (     0         -1          0      )
                  (     0          0         -1      )

 cart.    s( 4) = (  1.0000000  0.0000000  0.0000000 )
                  (  0.0000000 -1.0000000  0.0000000 )
                  (  0.0000000  0.0000000 -1.0000000 )


      isym =  5     180 deg rotation - cart. axis [1,1,0]        

 Time Reversal            1
 cryst.   s( 5) = (     0          1          0      )
                  (     1          0          0      )
                  (     0          0         -1      )

 cart.    s( 5) = (  0.0000000  1.0000000  0.0000000 )
                  (  1.0000000  0.0000000  0.0000000 )
                  (  0.0000000  0.0000000 -1.0000000 )


      isym =  6     180 deg rotation - cart. axis [1,-1,0]       

 Time Reversal            1
 cryst.   s( 6) = (     0         -1          0      )
                  (    -1          0          0      )
                  (     0          0         -1      )

 cart.    s( 6) = (  0.0000000 -1.0000000  0.0000000 )
                  ( -1.0000000  0.0000000  0.0000000 )
                  (  0.0000000  0.0000000 -1.0000000 )


      isym =  7      90 deg rotation - cart. axis [0,0,-1]       

 Time Reversal            0
 cryst.   s( 7) = (     0         -1          0      )
                  (     1          0          0      )
                  (     0          0          1      )

 cart.    s( 7) = (  0.0000000  1.0000000  0.0000000 )
                  ( -1.0000000  0.0000000  0.0000000 )
                  (  0.0000000  0.0000000  1.0000000 )


      isym =  8      90 deg rotation - cart. axis [0,0,1]        

 Time Reversal            0
 cryst.   s( 8) = (     0          1          0      )
                  (    -1          0          0      )
                  (     0          0          1      )

 cart.    s( 8) = (  0.0000000 -1.0000000  0.0000000 )
                  (  1.0000000  0.0000000  0.0000000 )
                  (  0.0000000  0.0000000  1.0000000 )


      isym =  9     inversion                                    

 Time Reversal            0
 cryst.   s( 9) = (    -1          0          0      )
                  (     0         -1          0      )
                  (     0          0         -1      )

 cart.    s( 9) = ( -1.0000000  0.0000000  0.0000000 )
                  (  0.0000000 -1.0000000  0.0000000 )
                  (  0.0000000  0.0000000 -1.0000000 )


      isym = 10     inv. 180 deg rotation - cart. axis [0,0,1]   

 Time Reversal            0
 cryst.   s(10) = (     1          0          0      )
                  (     0          1          0      )
                  (     0          0         -1      )

 cart.    s(10) = (  1.0000000  0.0000000  0.0000000 )
                  (  0.0000000  1.0000000  0.0000000 )
                  (  0.0000000  0.0000000 -1.0000000 )


      isym = 11     inv. 180 deg rotation - cart. axis [0,1,0]   

 Time Reversal            1
 cryst.   s(11) = (     1          0          0      )
                  (     0         -1          0      )
                  (     0          0          1      )

 cart.    s(11) = (  1.0000000  0.0000000  0.0000000 )
                  (  0.0000000 -1.0000000  0.0000000 )
                  (  0.0000000  0.0000000  1.0000000 )


      isym = 12     inv. 180 deg rotation - cart. axis [1,0,0]   

 Time Reversal            1
 cryst.   s(12) = (    -1          0          0      )
                  (     0          1          0      )
                  (     0          0          1      )

 cart.    s(12) = ( -1.0000000  0.0000000  0.0000000 )
                  (  0.0000000  1.0000000  0.0000000 )
                  (  0.0000000  0.0000000  1.0000000 )


      isym = 13     inv. 180 deg rotation - cart. axis [1,1,0]   

 Time Reversal            1
 cryst.   s(13) = (     0         -1          0      )
                  (    -1          0          0      )
                  (     0          0          1      )

 cart.    s(13) = (  0.0000000 -1.0000000  0.0000000 )
                  ( -1.0000000  0.0000000  0.0000000 )
                  (  0.0000000  0.0000000  1.0000000 )


      isym = 14     inv. 180 deg rotation - cart. axis [1,-1,0]  

 Time Reversal            1
 cryst.   s(14) = (     0          1          0      )
                  (     1          0          0      )
                  (     0          0          1      )

 cart.    s(14) = (  0.0000000  1.0000000  0.0000000 )
                  (  1.0000000  0.0000000  0.0000000 )
                  (  0.0000000  0.0000000  1.0000000 )


      isym = 15     inv.  90 deg rotation - cart. axis [0,0,-1]  

 Time Reversal            0
 cryst.   s(15) = (     0          1          0      )
                  (    -1          0          0      )
                  (     0          0         -1      )

 cart.    s(15) = (  0.0000000 -1.0000000  0.0000000 )
                  (  1.0000000  0.0000000  0.0000000 )
                  (  0.0000000  0.0000000 -1.0000000 )


      isym = 16     inv.  90 deg rotation - cart. axis [0,0,1]   

 Time Reversal            0
 cryst.   s(16) = (     0         -1          0      )
                  (     1          0          0      )
                  (     0          0         -1      )

 cart.    s(16) = (  0.0000000  1.0000000  0.0000000 )
                  ( -1.0000000  0.0000000  0.0000000 )
                  (  0.0000000  0.0000000 -1.0000000 )


     the magnetic double point group is D_4h(4/mmm) [C_4h (4/m) ]
     using the double point group C_4h (4/m) 
     there are 16 classes and  8 irreducible representations
     the character table:

       E     -E    C4    -C4   C2    -C2   C4^3  -C4^3 i     -i    S4^3  -S4^3
                                                                              
G_5+   1.00 -1.00  0.71 -0.71  0.00  0.00  0.71 -0.71  1.00 -1.00  0.71 -0.71
G_6+   1.00 -1.00  0.71 -0.71  0.00  0.00  0.71 -0.71  1.00 -1.00  0.71 -0.71
G_7+   1.00 -1.00 -0.71  0.71  0.00  0.00 -0.71  0.71  1.00 -1.00 -0.71  0.71
G_8+   1.00 -1.00 -0.71  0.71  0.00  0.00 -0.71  0.71  1.00 -1.00 -0.71  0.71
G_5-   1.00 -1.00  0.71 -0.71  0.00  0.00  0.71 -0.71 -1.00  1.00 -0.71  0.71
G_6-   1.00 -1.00  0.71 -0.71  0.00  0.00  0.71 -0.71 -1.00  1.00 -0.71  0.71
G_7-   1.00 -1.00 -0.71  0.71  0.00  0.00 -0.71  0.71 -1.00  1.00  0.71 -0.71
G_8-   1.00 -1.00 -0.71  0.71  0.00  0.00 -0.71  0.71 -1.00  1.00  0.71 -0.71

       s_h   -s_h  S4    -S4  
                              
G_5+   0.00  0.00  0.71 -0.71
G_6+   0.00  0.00  0.71 -0.71
G_7+   0.00  0.00 -0.71  0.71
G_8+   0.00  0.00 -0.71  0.71
G_5-   0.00  0.00 -0.71  0.71
G_6-   0.00  0.00 -0.71  0.71
G_7-   0.00  0.00  0.71 -0.71
G_8-   0.00  0.00  0.71 -0.71

     imaginary part

       E     -E    C4    -C4   C2    -C2   C4^3  -C4^3 i     -i    S4^3  -S4^3
                                                                              
G_5+   0.00  0.00  0.71 -0.71  1.00 -1.00 -0.71  0.71  0.00  0.00  0.71 -0.71
G_6+   0.00  0.00 -0.71  0.71 -1.00  1.00  0.71 -0.71  0.00  0.00 -0.71  0.71
G_7+   0.00  0.00 -0.71  0.71  1.00 -1.00  0.71 -0.71  0.00  0.00 -0.71  0.71
G_8+   0.00  0.00  0.71 -0.71 -1.00  1.00 -0.71  0.71  0.00  0.00  0.71 -0.71
G_5-   0.00  0.00  0.71 -0.71  1.00 -1.00 -0.71  0.71  0.00  0.00 -0.71  0.71
G_6-   0.00  0.00 -0.71  0.71 -1.00  1.00  0.71 -0.71  0.00  0.00  0.71 -0.71
G_7-   0.00  0.00 -0.71  0.71  1.00 -1.00  0.71 -0.71  0.00  0.00  0.71 -0.71
G_8-   0.00  0.00  0.71 -0.71 -1.00  1.00 -0.71  0.71  0.00  0.00 -0.71  0.71

       s_h   -s_h  S4    -S4  
                              
G_5+   1.00 -1.00 -0.71  0.71
G_6+  -1.00  1.00  0.71 -0.71
G_7+   1.00 -1.00  0.71 -0.71
G_8+  -1.00  1.00 -0.71  0.71
G_5-  -1.00  1.00  0.71 -0.71
G_6-   1.00 -1.00 -0.71  0.71
G_7-  -1.00  1.00 -0.71  0.71
G_8-   1.00 -1.00  0.71 -0.71

     the symmetry operations in each class and the name of the first element:

     E             1
          identity                                               
     -E           -1
          identity E                                             
     C4            4
           90 deg rotation - cart. axis [0,0,1]                  
     -C4          -4
           90 deg rotation - cart. axis [0,0,1] E                
     C2            2
          180 deg rotation - cart. axis [0,0,1]                  
     -C2          -2
          180 deg rotation - cart. axis [0,0,1] E                
     C4^3          3
           90 deg rotation - cart. axis [0,0,-1]                 
     -C4^3        -3
           90 deg rotation - cart. axis [0,0,-1] E               
     i             5
          inversion                                              
     -i           -5
          inversion E                                            
     S4^3          8
          inv.  90 deg rotation - cart. axis [0,0,1]             
     -S4^3        -8
          inv.  90 deg rotation - cart. axis [0,0,1] E           
     s_h           6
          inv. 180 deg rotation - cart. axis [0,0,1]             
     -s_h         -6
          inv. 180 deg rotation - cart. axis [0,0,1] E           
     S4            7
          inv.  90 deg rotation - cart. axis [0,0,-1]            
     -S4          -7
          inv.  90 deg rotation - cart. axis [0,0,-1] E          

   Cartesian axes

     site n.     atom                  positions (alat units)
         1           Fe  tau(   1) = (   0.0000000   0.0000000   0.0000000  )
         2           Ni  tau(   2) = (   0.5000000   0.5000000   0.7143741  )

   Crystallographic axes

     site n.     atom                  positions (cryst. coord.)
         1           Fe  tau(   1) = (  0.0000000  0.0000000  0.0000000  )
         2           Ni  tau(   2) = (  0.5000000  0.5000000  0.5000000  )

     number of k points=    60  Methfessel-Paxton smearing, width (Ry)=  0.0100
                       cart. coord. in units 2pi/alat
        k(    1) = (   0.0555556   0.0555556   0.0499938), wk =   0.0141093
        k(    2) = (   0.0555556   0.0555556   0.1499814), wk =   0.0141093
        k(    3) = (   0.0555556   0.0555556   0.2499691), wk =   0.0141093
        k(    4) = (   0.0555556   0.0555556  -0.3499567), wk =   0.0070547
        k(    5) = (   0.0555556   0.1666667   0.0499938), wk =   0.0282187
        k(    6) = (   0.0555556   0.1666667   0.1499814), wk =   0.0282187
        k(    7) = (   0.0555556   0.1666667   0.2499691), wk =   0.0282187
        k(    8) = (   0.0555556   0.1666667  -0.3499567), wk =   0.0141093
        k(    9) = (   0.0555556   0.2777778   0.0499938), wk =   0.0282187
        k(   10) = (   0.0555556   0.2777778   0.1499814), wk =   0.0282187
        k(   11) = (   0.0555556   0.2777778   0.2499691), wk =   0.0282187
        k(   12) = (   0.0555556   0.2777778  -0.3499567), wk =   0.0141093
        k(   13) = (   0.0555556   0.3888889   0.0499938), wk =   0.0282187
        k(   14) = (   0.0555556   0.3888889   0.1499814), wk =   0.0282187
        k(   15) = (   0.0555556   0.3888889   0.2499691), wk =   0.0282187
        k(   16) = (   0.0555556   0.3888889  -0.3499567), wk =   0.0141093
        k(   17) = (   0.0555556  -0.5000000   0.0499938), wk =   0.0141093
        k(   18) = (   0.0555556  -0.5000000   0.1499814), wk =   0.0141093
        k(   19) = (   0.0555556  -0.5000000   0.2499691), wk =   0.0141093
        k(   20) = (   0.0555556  -0.5000000  -0.3499567), wk =   0.0070547
        k(   21) = (   0.1666667   0.1666667   0.0499938), wk =   0.0141093
        k(   22) = (   0.1666667   0.1666667   0.1499814), wk =   0.0141093
        k(   23) = (   0.1666667   0.1666667   0.2499691), wk =   0.0141093
        k(   24) = (   0.1666667   0.1666667  -0.3499567), wk =   0.0070547
        k(   25) = (   0.1666667   0.2777778   0.0499938), wk =   0.0282187
        k(   26) = (   0.1666667   0.2777778   0.1499814), wk =   0.0282187
        k(   27) = (   0.1666667   0.2777778   0.2499691), wk =   0.0282187
        k(   28) = (   0.1666667   0.2777778  -0.3499567), wk =   0.0141093
        k(   29) = (   0.1666667   0.3888889   0.0499938), wk =   0.0282187
        k(   30) = (   0.1666667   0.3888889   0.1499814), wk =   0.0282187
        k(   31) = (   0.1666667   0.3888889   0.2499691), wk =   0.0282187
        k(   32) = (   0.1666667   0.3888889  -0.3499567), wk =   0.0141093
        k(   33) = (   0.1666667  -0.5000000   0.0499938), wk =   0.0141093
        k(   34) = (   0.1666667  -0.5000000   0.1499814), wk =   0.0141093
        k(   35) = (   0.1666667  -0.5000000   0.2499691), wk =   0.0141093
        k(   36) = (   0.1666667  -0.5000000  -0.3499567), wk =   0.0070547
        k(   37) = (   0.2777778   0.2777778   0.0499938), wk =   0.0141093
        k(   38) = (   0.2777778   0.2777778   0.1499814), wk =   0.0141093
        k(   39) = (   0.2777778   0.2777778   0.2499691), wk =   0.0141093
        k(   40) = (   0.2777778   0.2777778  -0.3499567), wk =   0.0070547
        k(   41) = (   0.2777778   0.3888889   0.0499938), wk =   0.0282187
        k(   42) = (   0.2777778   0.3888889   0.1499814), wk =   0.0282187
        k(   43) = (   0.2777778   0.3888889   0.2499691), wk =   0.0282187
        k(   44) = (   0.2777778   0.3888889  -0.3499567), wk =   0.0141093
        k(   45) = (   0.2777778  -0.5000000   0.0499938), wk =   0.0141093
        k(   46) = (   0.2777778  -0.5000000   0.1499814), wk =   0.0141093
        k(   47) = (   0.2777778  -0.5000000   0.2499691), wk =   0.0141093
        k(   48) = (   0.2777778  -0.5000000  -0.3499567), wk =   0.0070547
        k(   49) = (   0.3888889   0.3888889   0.0499938), wk =   0.0141093
        k(   50) = (   0.3888889   0.3888889   0.1499814), wk =   0.0141093
        k(   51) = (   0.3888889   0.3888889   0.2499691), wk =   0.0141093
        k(   52) = (   0.3888889   0.3888889  -0.3499567), wk =   0.0070547
        k(   53) = (   0.3888889  -0.5000000   0.0499938), wk =   0.0141093
        k(   54) = (   0.3888889  -0.5000000   0.1499814), wk =   0.0141093
        k(   55) = (   0.3888889  -0.5000000   0.2499691), wk =   0.0141093
        k(   56) = (   0.3888889  -0.5000000  -0.3499567), wk =   0.0070547
        k(   57) = (  -0.5000000  -0.5000000   0.0499938), wk =   0.0035273
        k(   58) = (  -0.5000000  -0.5000000   0.1499814), wk =   0.0035273
        k(   59) = (  -0.5000000  -0.5000000   0.2499691), wk =   0.0035273
        k(   60) = (  -0.5000000  -0.5000000  -0.3499567), wk =   0.0017637

                       cryst. coord.
        k(    1) = (   0.0555556   0.0555556   0.0714286), wk =   0.0141093
        k(    2) = (   0.0555556   0.0555556   0.2142857), wk =   0.0141093
        k(    3) = (   0.0555556   0.0555556   0.3571429), wk =   0.0141093
        k(    4) = (   0.0555556   0.0555556  -0.5000000), wk =   0.0070547
        k(    5) = (   0.0555556   0.1666667   0.0714286), wk =   0.0282187
        k(    6) = (   0.0555556   0.1666667   0.2142857), wk =   0.0282187
        k(    7) = (   0.0555556   0.1666667   0.3571429), wk =   0.0282187
        k(    8) = (   0.0555556   0.1666667  -0.5000000), wk =   0.0141093
        k(    9) = (   0.0555556   0.2777778   0.0714286), wk =   0.0282187
        k(   10) = (   0.0555556   0.2777778   0.2142857), wk =   0.0282187
        k(   11) = (   0.0555556   0.2777778   0.3571429), wk =   0.0282187
        k(   12) = (   0.0555556   0.2777778  -0.5000000), wk =   0.0141093
        k(   13) = (   0.0555556   0.3888889   0.0714286), wk =   0.0282187
        k(   14) = (   0.0555556   0.3888889   0.2142857), wk =   0.0282187
        k(   15) = (   0.0555556   0.3888889   0.3571429), wk =   0.0282187
        k(   16) = (   0.0555556   0.3888889  -0.5000000), wk =   0.0141093
        k(   17) = (   0.0555556  -0.5000000   0.0714286), wk =   0.0141093
        k(   18) = (   0.0555556  -0.5000000   0.2142857), wk =   0.0141093
        k(   19) = (   0.0555556  -0.5000000   0.3571429), wk =   0.0141093
        k(   20) = (   0.0555556  -0.5000000  -0.5000000), wk =   0.0070547
        k(   21) = (   0.1666667   0.1666667   0.0714286), wk =   0.0141093
        k(   22) = (   0.1666667   0.1666667   0.2142857), wk =   0.0141093
        k(   23) = (   0.1666667   0.1666667   0.3571429), wk =   0.0141093
        k(   24) = (   0.1666667   0.1666667  -0.5000000), wk =   0.0070547
        k(   25) = (   0.1666667   0.2777778   0.0714286), wk =   0.0282187
        k(   26) = (   0.1666667   0.2777778   0.2142857), wk =   0.0282187
        k(   27) = (   0.1666667   0.2777778   0.3571429), wk =   0.0282187
        k(   28) = (   0.1666667   0.2777778  -0.5000000), wk =   0.0141093
        k(   29) = (   0.1666667   0.3888889   0.0714286), wk =   0.0282187
        k(   30) = (   0.1666667   0.3888889   0.2142857), wk =   0.0282187
        k(   31) = (   0.1666667   0.3888889   0.3571429), wk =   0.0282187
        k(   32) = (   0.1666667   0.3888889  -0.5000000), wk =   0.0141093
        k(   33) = (   0.1666667  -0.5000000   0.0714286), wk =   0.0141093
        k(   34) = (   0.1666667  -0.5000000   0.2142857), wk =   0.0141093
        k(   35) = (   0.1666667  -0.5000000   0.3571429), wk =   0.0141093
        k(   36) = (   0.1666667  -0.5000000  -0.5000000), wk =   0.0070547
        k(   37) = (   0.2777778   0.2777778   0.0714286), wk =   0.0141093
        k(   38) = (   0.2777778   0.2777778   0.2142857), wk =   0.0141093
        k(   39) = (   0.2777778   0.2777778   0.3571429), wk =   0.0141093
        k(   40) = (   0.2777778   0.2777778  -0.5000000), wk =   0.0070547
        k(   41) = (   0.2777778   0.3888889   0.0714286), wk =   0.0282187
        k(   42) = (   0.2777778   0.3888889   0.2142857), wk =   0.0282187
        k(   43) = (   0.2777778   0.3888889   0.3571429), wk =   0.0282187
        k(   44) = (   0.2777778   0.3888889  -0.5000000), wk =   0.0141093
        k(   45) = (   0.2777778  -0.5000000   0.0714286), wk =   0.0141093
        k(   46) = (   0.2777778  -0.5000000   0.2142857), wk =   0.0141093
        k(   47) = (   0.2777778  -0.5000000   0.3571429), wk =   0.0141093
        k(   48) = (   0.2777778  -0.5000000  -0.5000000), wk =   0.0070547
        k(   49) = (   0.3888889   0.3888889   0.0714286), wk =   0.0141093
        k(   50) = (   0.3888889   0.3888889   0.2142857), wk =   0.0141093
        k(   51) = (   0.3888889   0.3888889   0.3571429), wk =   0.0141093
        k(   52) = (   0.3888889   0.3888889  -0.5000000), wk =   0.0070547
        k(   53) = (   0.3888889  -0.5000000   0.0714286), wk =   0.0141093
        k(   54) = (   0.3888889  -0.5000000   0.2142857), wk =   0.0141093
        k(   55) = (   0.3888889  -0.5000000   0.3571429), wk =   0.0141093
        k(   56) = (   0.3888889  -0.5000000  -0.5000000), wk =   0.0070547
        k(   57) = (  -0.5000000  -0.5000000   0.0714286), wk =   0.0035273
        k(   58) = (  -0.5000000  -0.5000000   0.2142857), wk =   0.0035273
        k(   59) = (  -0.5000000  -0.5000000   0.3571429), wk =   0.0035273
        k(   60) = (  -0.5000000  -0.5000000  -0.5000000), wk =   0.0017637

     Dense  grid:    55993 G-vectors     FFT dimensions: (  45,  45,  64)

     Smooth grid:    10451 G-vectors     FFT dimensions: (  25,  25,  36)

     Dynamical RAM for                 wfc:       0.34 MB

     Dynamical RAM for     wfc (w. buffer):       7.15 MB

     Dynamical RAM for           str. fact:       0.43 MB

     Dynamical RAM for           local pot:       0.00 MB

     Dynamical RAM for          nlocal pot:       0.34 MB

     Dynamical RAM for                qrad:      11.75 MB

     Dynamical RAM for          rho,v,vnew:       5.53 MB

     Dynamical RAM for           G-vectors:       0.82 MB

     Dynamical RAM for          h,s,v(r/c):       0.21 MB

     Dynamical RAM for          <psi|beta>:       0.07 MB

     Dynamical RAM for                 psi:       0.68 MB

     Dynamical RAM for                hpsi:       0.68 MB

     Dynamical RAM for                spsi:       0.68 MB

     Dynamical RAM for      wfcinit/wfcrot:       0.71 MB

     Dynamical RAM for           addusdens:      44.28 MB

     Estimated static dynamical RAM per process >      28.63 MB

     Estimated max dynamical RAM per process >      72.92 MB

     Estimated total dynamical RAM >     875.01 MB

     Check: negative core charge=   -0.000008
     Generating pointlists ...
     new r_m :   0.4125 (alat units)  1.9539 (a.u.) for type    1
     new r_m :   0.4125 (alat units)  1.9539 (a.u.) for type    2
     Message from routine read_rhog:
     some spin components not found
 
 -----------
Spin angles Theta, Phi (degree) =   0.0000  0.0000
 -----------

     The potential is recalculated from file :
     ./work/pwscf.save/charge-density

     Starting wfcs are   44 randomized atomic wfcs

     Band Structure Calculation
     Davidson diagonalization with overlap

     Computing kpt #:     1  of    20 on this pool
     total cpu time spent up to now is        2.0 secs

     Computing kpt #:     2  of    20 on this pool
     total cpu time spent up to now is        2.7 secs

     Computing kpt #:     3  of    20 on this pool
     total cpu time spent up to now is        3.5 secs

     Computing kpt #:     4  of    20 on this pool
     total cpu time spent up to now is        4.4 secs

     Computing kpt #:     5  of    20 on this pool
     total cpu time spent up to now is        5.2 secs

     Computing kpt #:     6  of    20 on this pool
     total cpu time spent up to now is        5.9 secs

     Computing kpt #:     7  of    20 on this pool
     total cpu time spent up to now is        6.9 secs

     Computing kpt #:     8  of    20 on this pool
     total cpu time spent up to now is        7.7 secs

     Computing kpt #:     9  of    20 on this pool
     total cpu time spent up to now is        8.5 secs

     Computing kpt #:    10  of    20 on this pool
     total cpu time spent up to now is        9.2 secs

     Computing kpt #:    11  of    20 on this pool
     total cpu time spent up to now is       10.0 secs

     Computing kpt #:    12  of    20 on this pool
     total cpu time spent up to now is       10.8 secs

     Computing kpt #:    13  of    20 on this pool
     total cpu time spent up to now is       11.5 secs

     Computing kpt #:    14  of    20 on this pool
     total cpu time spent up to now is       12.3 secs

     Computing kpt #:    15  of    20 on this pool
     total cpu time spent up to now is       13.0 secs

     Computing kpt #:    16  of    20 on this pool
     total cpu time spent up to now is       13.7 secs

     Computing kpt #:    17  of    20 on this pool
     total cpu time spent up to now is       14.4 secs

     Computing kpt #:    18  of    20 on this pool
     total cpu time spent up to now is       15.0 secs

     Computing kpt #:    19  of    20 on this pool
     total cpu time spent up to now is       15.8 secs

     Computing kpt #:    20  of    20 on this pool
     total cpu time spent up to now is       16.6 secs

     ethr =  3.85E-11,  avg # of iterations = 63.4

     total cpu time spent up to now is       16.6 secs

     End of band structure calculation

------
 eband, Ef (eV) =   -121.420411218951        15.9035422476833     
------


          k = 0.0556 0.0556 0.0500 (  1304 PWs)   bands (ev):

   -72.5869 -69.3726 -39.1200 -38.9352 -37.9395 -35.6775 -35.3705 -34.8251
     7.2302   7.3064  10.9325  11.6200  12.0156  12.7098  13.3246  13.4427
    13.4871  14.3219  14.4912  14.6016  14.6821  15.0035  15.0490  15.2150
    15.4594  15.5294  16.2269  16.8396  17.6075  18.0034  18.3145  18.9397
    25.5070  26.4259

     occupation numbers 
     1.0000   1.0000   1.0000   1.0000   1.0000   1.0000   1.0000   1.0000
     1.0000   1.0000   1.0000   1.0000   1.0000   1.0000   1.0000   1.0000
     1.0000   1.0000   1.0000   1.0000   1.0000   1.0000   1.0000   1.0000
     1.0000   1.0004  -0.0020  -0.0000  -0.0000  -0.0000  -0.0000  -0.0000
    -0.0000  -0.0000

          k = 0.0556 0.0556 0.1500 (  1308 PWs)   bands (ev):

   -72.5868 -69.3725 -39.1202 -38.9366 -37.9396 -35.6777 -35.3725 -34.8252
     7.7372   7.8153  10.9787  11.7764  11.9147  12.8643  13.1743  13.5503
    13.6268  14.1841  14.5481  14.5938  14.6507  14.7384  14.9409  15.1608
    15.2128  15.5029  15.6092  16.5795  16.6397  17.3503  17.8743  18.0889
    28.1779  28.8338

     occupation numbers 
     1.0000   1.0000   1.0000   1.0000   1.0000   1.0000   1.0000   1.0000
     1.0000   1.0000   1.0000   1.0000   1.0000   1.0000   1.0000   1.0000
     1.0000   1.0000   1.0000   1.0000   1.0000   1.0000   1.0000   1.0000
     1.0000   1.0001   1.0046  -0.0000  -0.0000  -0.0000  -0.0000  -0.0000
    -0.0000  -0.0000

          k = 0.0556 0.0556 0.2500 (  1313 PWs)   bands (ev):

   -72.5868 -69.3724 -39.1204 -38.9383 -37.9398 -35.6780 -35.3749 -34.8253
     8.6886   8.7780  10.7755  11.3272  12.0601  12.8632  13.1169  13.6918
    13.8828  13.8969  14.1021  14.3693  14.6503  14.7420  14.8062  14.9027
    14.9419  15.0418  15.3821  15.5160  16.3965  17.0035  17.2627  17.9972
    31.4744  31.7764

     occupation numbers 
     1.0000   1.0000   1.0000   1.0000   1.0000   1.0000   1.0000   1.0000
     1.0000   1.0000   1.0000   1.0000   1.0000   1.0000   1.0000   1.0000
     1.0000   1.0000   1.0000   1.0000   1.0000   1.0000   1.0000   1.0000
     1.0000   1.0000   1.0000   1.0002  -0.0000  -0.0000  -0.0000  -0.0000
    -0.0000  -0.0000

          k = 0.0556 0.0556-0.3500 (  1310 PWs)   bands (ev):

   -72.5867 -69.3724 -39.1204 -38.9389 -37.9398 -35.6781 -35.3758 -34.8253
     9.8599   9.8626   9.9057  10.3057  12.3328  12.5772  13.2769  13.5114
    13.6540  14.1859  14.2597  14.2866  14.4286  14.4326  14.5434  14.9231
    14.9448  15.0007  15.1342  15.5032  16.3369  16.8336  17.0172  17.9810
    33.1155  33.2808

     occupation numbers 
     1.0000   1.0000   1.0000   1.0000   1.0000   1.0000   1.0000   1.0000
     1.0000   1.0000   1.0000   1.0000   1.0000   1.0000   1.0000   1.0000
     1.0000   1.0000   1.0000   1.0000   1.0000   1.0000   1.0000   1.0000
     1.0000   1.0000   1.0000   1.0001  -0.0000  -0.0000  -0.0000  -0.0000
    -0.0000  -0.0000

          k = 0.0556 0.1667 0.0500 (  1311 PWs)   bands (ev):

   -72.5812 -69.3662 -39.1421 -38.9317 -37.9632 -35.7031 -35.3659 -34.8516
     7.8528   7.9343  11.2503  11.8483  12.3565  12.9088  13.1336  13.5803
    13.6158  14.2121  14.2330  14.3323  14.5135  14.7217  14.9273  15.1726
    15.3246  15.4336  15.8504  16.3938  17.5176  17.7197  19.7131  20.4888
    25.5814  26.3605

     occupation numbers 
     1.0000   1.0000   1.0000   1.0000   1.0000   1.0000   1.0000   1.0000
     1.0000   1.0000   1.0000   1.0000   1.0000   1.0000   1.0000   1.0000
     1.0000   1.0000   1.0000   1.0000   1.0000   1.0000   1.0000   1.0000
     1.0000   1.0000   0.8042  -0.0000  -0.0000  -0.0000  -0.0000  -0.0000
    -0.0000  -0.0000

          k = 0.0556 0.1667 0.1500 (  1312 PWs)   bands (ev):

   -72.5811 -69.3661 -39.1422 -38.9328 -37.9632 -35.7032 -35.3676 -34.8516
     8.3307   8.4192  11.3165  11.9846  12.2831  13.0396  13.0853  13.5730
    13.6607  13.8398  14.1795  14.3089  14.5774  14.6889  14.7673  15.1298
    15.2198  15.3448  15.4294  16.4306  17.3032  17.7579  17.8273  19.0594
    26.9577  27.4160

     occupation numbers 
     1.0000   1.0000   1.0000   1.0000   1.0000   1.0000   1.0000   1.0000
     1.0000   1.0000   1.0000   1.0000   1.0000   1.0000   1.0000   1.0000
     1.0000   1.0000   1.0000   1.0000   1.0000   1.0000   1.0000   1.0000
     1.0000   1.0000   1.0000  -0.0000  -0.0000  -0.0000  -0.0000  -0.0000
    -0.0000  -0.0000

          k = 0.0556 0.1667 0.2500 (  1306 PWs)   bands (ev):

   -72.5810 -69.3660 -39.1421 -38.9342 -37.9631 -35.7032 -35.3696 -34.8514
     9.2182   9.3317  11.1427  11.7344  12.2454  12.8890  13.2655  13.3624
    13.5389  13.7870  14.1103  14.2956  14.3940  14.5412  14.8630  14.9040
    15.1441  15.1739  15.2934  16.1673  16.5077  17.1101  17.6300  18.0046
    28.1112  28.5621

     occupation numbers 
     1.0000   1.0000   1.0000   1.0000   1.0000   1.0000   1.0000   1.0000
     1.0000   1.0000   1.0000   1.0000   1.0000   1.0000   1.0000   1.0000
     1.0000   1.0000   1.0000   1.0000   1.0000   1.0000   1.0000   1.0000
     1.0000   1.0000   1.0000  -0.0097  -0.0000  -0.0000  -0.0000  -0.0000
    -0.0000  -0.0000

          k = 0.0556 0.1667-0.3500 (  1300 PWs)   bands (ev):

   -72.5809 -69.3659 -39.1420 -38.9348 -37.9630 -35.7031 -35.3704 -34.8513
    10.2537  10.3435  10.3832  10.7840  12.5066  12.6593  13.2512  13.3820
    13.4076  14.0164  14.0428  14.0992  14.3789  14.7251  14.7267  14.8505
    15.1777  15.2110  15.2894  15.3192  16.7402  16.8693  17.3186  17.8536
    29.3543  29.6550

     occupation numbers 
     1.0000   1.0000   1.0000   1.0000   1.0000   1.0000   1.0000   1.0000
     1.0000   1.0000   1.0000   1.0000   1.0000   1.0000   1.0000   1.0000
     1.0000   1.0000   1.0000   1.0000   1.0000   1.0000   1.0000   1.0000
     1.0000   1.0000   1.0000   1.0000  -0.0000  -0.0000  -0.0000  -0.0000
    -0.0000  -0.0000

          k = 0.0556 0.2778 0.0500 (  1315 PWs)   bands (ev):

   -72.5724 -69.3563 -39.1780 -38.9265 -37.9966 -35.7459 -35.3589 -34.8872
     9.0012   9.1103  11.7463  12.1714  12.8388  12.8933  13.1535  13.4445
    13.5884  13.8172  13.8692  14.2321  14.5441  14.6925  14.8119  14.9918
    15.2500  15.2948  15.3983  16.6723  17.2377  17.4643  21.4416  22.2234
    22.8188  23.4947

     occupation numbers 
     1.0000   1.0000   1.0000   1.0000   1.0000   1.0000   1.0000   1.0000
     1.0000   1.0000   1.0000   1.0000   1.0000   1.0000   1.0000   1.0000
     1.0000   1.0000   1.0000   1.0000   1.0000   1.0000   1.0000   1.0000
     1.0000   1.0000   1.0000  -0.0000  -0.0000  -0.0000  -0.0000  -0.0000
    -0.0000  -0.0000

          k = 0.0556 0.2778 0.1500 (  1305 PWs)   bands (ev):

   -72.5723 -69.3562 -39.1778 -38.9272 -37.9964 -35.7457 -35.3600 -34.8870
     9.3814   9.5256  11.7306  12.2639  12.7257  12.9584  13.2853  13.3671
    13.5486  13.6552  13.8729  14.2497  14.5695  14.6192  14.7667  14.8831
    15.1856  15.3129  15.4190  16.6140  17.2119  17.5610  19.1109  20.1807
    23.5089  24.1939

     occupation numbers 
     1.0000   1.0000   1.0000   1.0000   1.0000   1.0000   1.0000   1.0000
     1.0000   1.0000   1.0000   1.0000   1.0000   1.0000   1.0000   1.0000
     1.0000   1.0000   1.0000   1.0000   1.0000   1.0000   1.0000   1.0000
     1.0000   1.0000   1.0000  -0.0000  -0.0000  -0.0000  -0.0000  -0.0000
    -0.0000  -0.0000

          k = 0.0556 0.2778 0.2500 (  1301 PWs)   bands (ev):

   -72.5722 -69.3561 -39.1776 -38.9285 -37.9962 -35.7456 -35.3618 -34.8868
    10.0414  10.2838  11.4191  12.1636  12.6045  13.1183  13.2628  13.4556
    13.5777  13.6285  13.9190  13.9863  14.5169  14.6509  14.7755  14.9829
    15.0861  15.2688  15.3829  16.6690  17.0398  17.3210  17.5521  18.5072
    24.5572  25.2207

     occupation numbers 
     1.0000   1.0000   1.0000   1.0000   1.0000   1.0000   1.0000   1.0000
     1.0000   1.0000   1.0000   1.0000   1.0000   1.0000   1.0000   1.0000
     1.0000   1.0000   1.0000   1.0000   1.0000   1.0000   1.0000   1.0000
     1.0000   1.0000   1.0000  -0.0000  -0.0000  -0.0000  -0.0000  -0.0000
    -0.0000  -0.0000

          k = 0.0556 0.2778-0.3500 (  1296 PWs)   bands (ev):

   -72.5721 -69.3561 -39.1775 -38.9289 -37.9961 -35.7455 -35.3625 -34.8866
    10.6726  10.9321  11.0768  11.4372  12.9635  13.0827  13.2541  13.3160
    13.6405  13.7544  13.7568  14.2209  14.2793  14.7844  14.8185  14.9817
    15.0157  15.3637  15.6833  15.6938  16.9555  17.2054  17.5920  17.7565
    25.7323  26.2399

     occupation numbers 
     1.0000   1.0000   1.0000   1.0000   1.0000   1.0000   1.0000   1.0000
     1.0000   1.0000   1.0000   1.0000   1.0000   1.0000   1.0000   1.0000
     1.0000   1.0000   1.0000   1.0000   1.0000   1.0000   1.0000   1.0000
     1.0000   1.0000   1.0222   1.0258  -0.0000  -0.0000  -0.0000  -0.0000
    -0.0000  -0.0000

          k = 0.0556 0.3889 0.0500 (  1312 PWs)   bands (ev):

   -72.5646 -69.3476 -39.2116 -38.9217 -38.0235 -35.7872 -35.3523 -34.9143
    10.4226  10.6383  12.1254  12.3296  12.6299  12.9862  13.0525  13.3150
    13.4478  13.5992  13.9313  14.1983  14.3965  14.4621  14.7443  14.9845
    15.2618  15.3454  15.5932  16.9101  17.2034  17.3254  19.3636  20.5265
    23.9566  24.6807

     occupation numbers 
     1.0000   1.0000   1.0000   1.0000   1.0000   1.0000   1.0000   1.0000
     1.0000   1.0000   1.0000   1.0000   1.0000   1.0000   1.0000   1.0000
     1.0000   1.0000   1.0000   1.0000   1.0000   1.0000   1.0000   1.0000
     1.0000   1.0000   1.0029  -0.0000  -0.0000  -0.0000  -0.0000  -0.0000
    -0.0000  -0.0000

          k = 0.0556 0.3889 0.1500 (  1305 PWs)   bands (ev):

   -72.5645 -69.3475 -39.2114 -38.9224 -38.0232 -35.7870 -35.3534 -34.9139
    10.5213  10.8739  11.7037  12.5357  12.6208  13.0699  13.3355  13.4037
    13.6217  13.6683  13.8781  13.9348  14.5865  14.7036  14.8250  15.1398
    15.1885  15.3661  15.4339  16.9622  17.1886  17.4669  18.9452  20.0231
    22.2460  23.1849

     occupation numbers 
     1.0000   1.0000   1.0000   1.0000   1.0000   1.0000   1.0000   1.0000
     1.0000   1.0000   1.0000   1.0000   1.0000   1.0000   1.0000   1.0000
     1.0000   1.0000   1.0000   1.0000   1.0000   1.0000   1.0000   1.0000
     1.0000   1.0000   1.0000  -0.0000  -0.0000  -0.0000  -0.0000  -0.0000
    -0.0000  -0.0000

          k = 0.0556 0.3889 0.2500 (  1303 PWs)   bands (ev):

   -72.5644 -69.3474 -39.2112 -38.9235 -38.0230 -35.7868 -35.3548 -34.9137
    10.6642  11.2520  11.3187  12.1593  12.8735  13.3271  13.4361  13.6137
    13.8195  13.8760  14.0131  14.2467  14.6260  14.7418  14.9965  15.1454
    15.2611  15.3117  15.4532  16.8398  17.4232  17.5160  17.5646  18.7553
    22.1286  23.1212

     occupation numbers 
     1.0000   1.0000   1.0000   1.0000   1.0000   1.0000   1.0000   1.0000
     1.0000   1.0000   1.0000   1.0000   1.0000   1.0000   1.0000   1.0000
     1.0000   1.0000   1.0000   1.0000   1.0000   1.0000   1.0000   1.0000
     1.0000   1.0000   1.0000  -0.0000  -0.0000  -0.0000  -0.0000  -0.0000
    -0.0000  -0.0000

          k = 0.0556 0.3889-0.3500 (  1300 PWs)   bands (ev):

   -72.5644 -69.3474 -39.2112 -38.9237 -38.0230 -35.7868 -35.3552 -34.9136
    10.7696  11.1220  11.5977  11.7940  13.0888  13.3169  13.3443  13.5120
    14.1466  14.2108  14.2647  14.4030  14.6929  14.7579  14.9035  15.1642
    15.1731  15.5126  16.0185  16.0419  16.8539  17.4790  17.7420  17.8483
    22.8451  23.3903

     occupation numbers 
     1.0000   1.0000   1.0000   1.0000   1.0000   1.0000   1.0000   1.0000
     1.0000   1.0000   1.0000   1.0000   1.0000   1.0000   1.0000   1.0000
     1.0000   1.0000   1.0000   1.0000   1.0000   1.0000   1.0000   1.0000
     1.0000   1.0002  -0.0006  -0.0268  -0.0000  -0.0000  -0.0000  -0.0000
    -0.0000  -0.0000

          k = 0.0556-0.5000 0.0500 (  1310 PWs)   bands (ev):

   -72.5615 -69.3441 -39.2255 -38.9198 -38.0335 -35.8045 -35.3496 -34.9238
    11.5981  11.6050  11.9584  12.2937  12.5686  12.6792  12.9253  13.0179
    13.4806  13.7221  13.9385  14.1329  14.3402  14.5731  14.6653  14.6998
    15.2539  15.3637  16.7869  16.8141  17.2411  17.2783  17.5299  19.4268
    26.2672  26.5259

     occupation numbers 
     1.0000   1.0000   1.0000   1.0000   1.0000   1.0000   1.0000   1.0000
     1.0000   1.0000   1.0000   1.0000   1.0000   1.0000   1.0000   1.0000
     1.0000   1.0000   1.0000   1.0000   1.0000   1.0000   1.0000   1.0000
     1.0000   1.0000  -0.0000  -0.0000  -0.0000  -0.0000  -0.0000  -0.0000
    -0.0000  -0.0000

          k = 0.0556-0.5000 0.1500 (  1306 PWs)   bands (ev):

   -72.5614 -69.3441 -39.2252 -38.9206 -38.0332 -35.8042 -35.3508 -34.9235
    11.1716  11.4001  11.8913  12.1027  12.8175  13.0888  13.2978  13.4397
    13.6780  13.7811  13.8461  13.9621  14.6024  14.6252  14.9796  15.0407
    15.1893  15.2913  16.6894  16.9505  17.0718  17.3960  17.5148  19.1135
    23.8676  24.2318

     occupation numbers 
     1.0000   1.0000   1.0000   1.0000   1.0000   1.0000   1.0000   1.0000
     1.0000   1.0000   1.0000   1.0000   1.0000   1.0000   1.0000   1.0000
     1.0000   1.0000   1.0000   1.0000   1.0000   1.0000   1.0000   1.0000
     1.0000   1.0000  -0.0000  -0.0000  -0.0000  -0.0000  -0.0000  -0.0000
    -0.0000  -0.0000

          k = 0.0556-0.5000 0.2500 (  1300 PWs)   bands (ev):

   -72.5613 -69.3440 -39.2249 -38.9215 -38.0329 -35.8039 -35.3520 -34.9231
    10.8628  11.2105  11.7869  11.9286  13.0363  13.1907  13.4169  13.5168
    14.0997  14.2118  14.2388  14.3281  14.7337  14.9837  15.2189  15.2578
    15.3110  15.3922  16.4401  16.5986  16.7709  17.5810  17.6295  18.4385
    22.1838  22.6467

     occupation numbers 
     1.0000   1.0000   1.0000   1.0000   1.0000   1.0000   1.0000   1.0000
     1.0000   1.0000   1.0000   1.0000   1.0000   1.0000   1.0000   1.0000
     1.0000   1.0000   1.0000   1.0000   1.0000   1.0000   1.0000   1.0000
     1.0000   1.0000  -0.0000  -0.0000  -0.0000  -0.0000  -0.0000  -0.0000
    -0.0000  -0.0000

          k = 0.0556-0.5000-0.3500 (  1292 PWs)   bands (ev):

   -72.5613 -69.3439 -39.2248 -38.9217 -38.0327 -35.8038 -35.3524 -34.9229
    10.7548  11.1382  11.7373  11.8627  13.1410  13.2163  13.3442  13.4352
    14.2614  14.3503  14.6786  14.7815  14.7891  15.2265  15.3967  15.4111
    15.4793  15.5087  16.1650  16.2076  16.5005  17.7055  17.7766  17.8239
    21.5669  22.0957

     occupation numbers 
     1.0000   1.0000   1.0000   1.0000   1.0000   1.0000   1.0000   1.0000
     1.0000   1.0000   1.0000   1.0000   1.0000   1.0000   1.0000   1.0000
     1.0000   1.0000   1.0000   1.0000   1.0000   1.0000   1.0000   1.0000
     1.0000   1.0002  -0.0102  -0.0035  -0.0000  -0.0000  -0.0000  -0.0000
    -0.0000  -0.0000

          k = 0.1667 0.1667 0.0500 (  1321 PWs)   bands (ev):

   -72.5755 -69.3598 -39.1627 -38.9283 -37.9877 -35.7259 -35.3615 -34.8798
     8.4460   8.5381  11.5037  12.1068  12.6171  12.8902  13.1531  13.5281
    13.7855  13.8533  14.0646  14.1240  14.3702  14.6324  14.7361  15.0614
    15.4758  15.4814  15.7795  16.4815  17.3889  17.5118  20.6973  21.4805
    25.9285  26.4186

     occupation numbers 
     1.0000   1.0000   1.0000   1.0000   1.0000   1.0000   1.0000   1.0000
     1.0000   1.0000   1.0000   1.0000   1.0000   1.0000   1.0000   1.0000
     1.0000   1.0000   1.0000   1.0000   1.0000   1.0000   1.0000   1.0000
     1.0000   1.0001   1.0133  -0.0000  -0.0000  -0.0000  -0.0000  -0.0000
    -0.0000  -0.0000

          k = 0.1667 0.1667 0.1500 (  1310 PWs)   bands (ev):

   -72.5754 -69.3597 -39.1625 -38.9291 -37.9875 -35.7258 -35.3628 -34.8796
     8.9014   9.0038  11.6225  12.2125  12.6041  12.8898  13.2175  13.2608
    13.6274  13.8734  14.0405  14.1417  14.1929  14.6869  14.8384  14.9338
    15.2142  15.4853  15.5291  16.5993  17.2229  17.4333  18.6503  19.8458
    27.0581  27.5190

     occupation numbers 
     1.0000   1.0000   1.0000   1.0000   1.0000   1.0000   1.0000   1.0000
     1.0000   1.0000   1.0000   1.0000   1.0000   1.0000   1.0000   1.0000
     1.0000   1.0000   1.0000   1.0000   1.0000   1.0000   1.0000   1.0000
     1.0000   1.0001   1.0003  -0.0000  -0.0000  -0.0000  -0.0000  -0.0000
    -0.0000  -0.0000

          k = 0.1667 0.1667 0.2500 (  1308 PWs)   bands (ev):

   -72.5753 -69.3596 -39.1625 -38.9305 -37.9874 -35.7258 -35.3647 -34.8794
     9.7372   9.8742  11.5306  12.1273  12.4005  12.8102  12.9532  13.4115
    13.4761  13.9595  14.0038  14.0892  14.1117  14.5097  14.7769  14.8151
    15.1420  15.2666  15.5568  16.7124  16.8239  16.9219  17.5474  18.5775
    28.2125  28.6782

     occupation numbers 
     1.0000   1.0000   1.0000   1.0000   1.0000   1.0000   1.0000   1.0000
     1.0000   1.0000   1.0000   1.0000   1.0000   1.0000   1.0000   1.0000
     1.0000   1.0000   1.0000   1.0000   1.0000   1.0000   1.0000   1.0000
     1.0000   1.0000   1.0009  -0.0000  -0.0000  -0.0000  -0.0000  -0.0000
    -0.0000  -0.0000

          k = 0.1667 0.1667-0.3500 (  1300 PWs)   bands (ev):

   -72.5752 -69.3595 -39.1623 -38.9311 -37.9872 -35.7256 -35.3655 -34.8792
    10.6574  10.8259  10.8695  11.2460  12.5957  12.6529  13.0842  13.2247
    13.5109  13.9953  14.0374  14.2312  14.2598  14.3414  14.4446  14.6388
    14.9859  15.6253  15.8545  15.8779  16.6300  16.7433  17.8081  17.9541
    29.4665  29.7657

     occupation numbers 
     1.0000   1.0000   1.0000   1.0000   1.0000   1.0000   1.0000   1.0000
     1.0000   1.0000   1.0000   1.0000   1.0000   1.0000   1.0000   1.0000
     1.0000   1.0000   1.0000   1.0000   1.0000   1.0000   1.0000   1.0000
     1.0000   1.0069   0.7839   0.6562  -0.0000  -0.0000  -0.0000  -0.0000
    -0.0000  -0.0000

          k = 0.1667 0.2778 0.0500 (  1319 PWs)   bands (ev):

   -72.5667 -69.3500 -39.1962 -38.9228 -38.0224 -35.7647 -35.3541 -34.9181
     9.5077   9.6503  11.8415  12.4632  12.5809  12.9361  12.9903  13.4622
    13.6436  13.7063  14.0121  14.0775  14.3777  14.4908  14.8138  14.8304
    15.4001  15.7123  15.8687  16.7418  17.0462  17.4346  22.1812  22.9365
    23.2838  23.9214

     occupation numbers 
     1.0000   1.0000   1.0000   1.0000   1.0000   1.0000   1.0000   1.0000
     1.0000   1.0000   1.0000   1.0000   1.0000   1.0000   1.0000   1.0000
     1.0000   1.0000   1.0000   1.0000   1.0000   1.0000   1.0000   1.0000
     1.0000   1.0316   0.7092  -0.0000  -0.0000  -0.0000  -0.0000  -0.0000
    -0.0000  -0.0000

          k = 0.1667 0.2778 0.1500 (  1313 PWs)   bands (ev):

   -72.5666 -69.3499 -39.1960 -38.9237 -38.0222 -35.7645 -35.3555 -34.9179
     9.8847  10.0591  12.0014  12.3480  12.6784  12.9300  13.0057  13.4073
    13.4815  13.7457  13.8902  14.0387  14.3457  14.5517  14.6983  15.0696
    15.2350  15.5340  15.8765  16.7002  17.2299  17.2761  19.8387  20.8771
    23.9124  24.5614

     occupation numbers 
     1.0000   1.0000   1.0000   1.0000   1.0000   1.0000   1.0000   1.0000
     1.0000   1.0000   1.0000   1.0000   1.0000   1.0000   1.0000   1.0000
     1.0000   1.0000   1.0000   1.0000   1.0000   1.0000   1.0000   1.0000
     1.0000   1.0004   0.6646  -0.0000  -0.0000  -0.0000  -0.0000  -0.0000
    -0.0000  -0.0000

          k = 0.1667 0.2778 0.2500 (  1307 PWs)   bands (ev):

   -72.5665 -69.3498 -39.1959 -38.9248 -38.0220 -35.7644 -35.3570 -34.9177
    10.5260  10.7971  11.8122  12.5271  12.5758  12.8133  12.9668  13.3316
    13.6498  13.7588  13.8550  14.0453  14.1360  14.4917  14.5991  14.9607
    15.1353  15.6580  15.8648  16.6002  17.0492  17.6426  17.8313  19.2428
    24.9799  25.6087

     occupation numbers 
     1.0000   1.0000   1.0000   1.0000   1.0000   1.0000   1.0000   1.0000
     1.0000   1.0000   1.0000   1.0000   1.0000   1.0000   1.0000   1.0000
     1.0000   1.0000   1.0000   1.0000   1.0000   1.0000   1.0000   1.0000
     1.0000   1.0143   0.7302  -0.0000  -0.0000  -0.0000  -0.0000  -0.0000
    -0.0000  -0.0000

          k = 0.1667 0.2778-0.3500 (  1312 PWs)   bands (ev):

   -72.5665 -69.3498 -39.1959 -38.9256 -38.0220 -35.7645 -35.3580 -34.9176
    11.0843  11.4119  11.5611  11.8649  12.8650  12.8743  13.0455  13.1661
    13.6989  13.7494  13.9120  13.9907  14.1819  14.5660  14.6559  14.6707
    14.7649  15.8790  16.4783  16.4846  16.5717  16.9053  18.2391  18.2631
    26.1686  26.6254

     occupation numbers 
     1.0000   1.0000   1.0000   1.0000   1.0000   1.0000   1.0000   1.0000
     1.0000   1.0000   1.0000   1.0000   1.0000   1.0000   1.0000   1.0000
     1.0000   1.0000   1.0000   1.0000   1.0000   1.0000   1.0000   1.0000
     1.0000   0.6499  -0.0000  -0.0000  -0.0000  -0.0000  -0.0000  -0.0000
    -0.0000  -0.0000

          k = 0.1667 0.3889 0.0500 (  1307 PWs)   bands (ev):

   -72.5589 -69.3413 -39.2275 -38.9180 -38.0501 -35.8024 -35.3475 -34.9470
    10.7247  11.0407  12.0105  12.2731  12.4817  12.8569  13.0154  13.3283
    13.3497  13.6260  13.8832  14.2626  14.4014  14.6721  14.7815  15.2015
    15.5890  15.8552  15.9864  16.7886  17.2792  17.4545  19.8406  20.8834
    24.4252  25.0979

     occupation numbers 
     1.0000   1.0000   1.0000   1.0000   1.0000   1.0000   1.0000   1.0000
     1.0000   1.0000   1.0000   1.0000   1.0000   1.0000   1.0000   1.0000
     1.0000   1.0000   1.0000   1.0000   1.0000   1.0000   1.0000   1.0000
     1.0026   0.7806   0.0759  -0.0000  -0.0000  -0.0000  -0.0000  -0.0000
    -0.0000  -0.0000

          k = 0.1667 0.3889 0.1500 (  1316 PWs)   bands (ev):

   -72.5589 -69.3413 -39.2276 -38.9190 -38.0501 -35.8025 -35.3489 -34.9471
    10.8793  11.3050  11.9354  12.3261  12.5915  12.8845  13.1711  13.3285
    13.3933  13.6570  13.9030  14.0902  14.1836  14.6871  15.1700  15.2702
    15.5372  15.6635  15.9184  16.8217  17.4091  17.5820  19.7501  20.7270
    22.4713  23.3354

     occupation numbers 
     1.0000   1.0000   1.0000   1.0000   1.0000   1.0000   1.0000   1.0000
     1.0000   1.0000   1.0000   1.0000   1.0000   1.0000   1.0000   1.0000
     1.0000   1.0000   1.0000   1.0000   1.0000   1.0000   1.0000   1.0000
     1.0005   1.0159   0.4083  -0.0000  -0.0000  -0.0000  -0.0000  -0.0000
    -0.0000  -0.0000

          k = 0.1667 0.3889 0.2500 (  1309 PWs)   bands (ev):

   -72.5588 -69.3412 -39.2275 -38.9199 -38.0499 -35.8023 -35.3502 -34.9468
    11.0626  11.6798  11.7159  12.5224  12.6374  12.9731  13.2486  13.5115
    13.6649  13.6946  13.8330  13.9552  14.2767  14.7434  15.0614  15.1372
    15.2150  15.8781  16.2716  16.6324  17.5006  17.9807  18.6136  19.7069
    22.3317  23.2507

     occupation numbers 
     1.0000   1.0000   1.0000   1.0000   1.0000   1.0000   1.0000   1.0000
     1.0000   1.0000   1.0000   1.0000   1.0000   1.0000   1.0000   1.0000
     1.0000   1.0000   1.0000   1.0000   1.0000   1.0000   1.0000   1.0000
     1.0000   0.6550  -0.0004  -0.0000  -0.0000  -0.0000  -0.0000  -0.0000
    -0.0000  -0.0000

          k = 0.1667 0.3889-0.3500 (  1314 PWs)   bands (ev):

   -72.5588 -69.3412 -39.2275 -38.9206 -38.0499 -35.8023 -35.3511 -34.9468
    11.1537  11.5563  12.0858  12.1822  12.8084  13.1299  13.4561  13.4773
    13.6394  13.7180  13.7881  14.2480  14.4618  14.6369  14.8339  14.9893
    15.1125  15.8740  16.5340  17.2218  17.2660  17.4475  18.6534  18.6864
    23.1577  23.7015

     occupation numbers 
     1.0000   1.0000   1.0000   1.0000   1.0000   1.0000   1.0000   1.0000
     1.0000   1.0000   1.0000   1.0000   1.0000   1.0000   1.0000   1.0000
     1.0000   1.0000   1.0000   1.0000   1.0000   1.0000   1.0000   1.0000
     1.0000   0.6792  -0.0000  -0.0000  -0.0000  -0.0000  -0.0000  -0.0000
    -0.0000  -0.0000

          k = 0.1667-0.5000 0.0500 (  1314 PWs)   bands (ev):

   -72.5559 -69.3379 -39.2408 -38.9161 -38.0607 -35.8185 -35.3449 -34.9576
    11.5613  11.6897  12.2002  12.2135  12.3765  12.4405  12.9947  13.1133
    13.2442  13.6394  13.9167  14.3935  14.4256  14.6021  14.9505  15.0013
    15.9799  16.0586  16.6943  17.0569  17.2917  17.5020  17.9560  19.4632
    26.6372  26.9698

     occupation numbers 
     1.0000   1.0000   1.0000   1.0000   1.0000   1.0000   1.0000   1.0000
     1.0000   1.0000   1.0000   1.0000   1.0000   1.0000   1.0000   1.0000
     1.0000   1.0000   1.0000   1.0000   1.0000   1.0000   1.0000   1.0000
     0.0980  -0.0342  -0.0000  -0.0000  -0.0000  -0.0000  -0.0000  -0.0000
    -0.0000  -0.0000

          k = 0.1667-0.5000 0.1500 (  1312 PWs)   bands (ev):

   -72.5558 -69.3378 -39.2406 -38.9170 -38.0605 -35.8184 -35.3461 -34.9574
    11.3619  11.6647  12.2581  12.3371  12.4565  12.5993  13.2094  13.3168
    13.4173  13.6858  13.9745  13.9999  14.1759  14.7529  15.2231  15.3245
    15.5535  15.9375  16.7389  17.2758  17.5210  17.5831  18.3374  19.3290
    24.1993  24.5745

     occupation numbers 
     1.0000   1.0000   1.0000   1.0000   1.0000   1.0000   1.0000   1.0000
     1.0000   1.0000   1.0000   1.0000   1.0000   1.0000   1.0000   1.0000
     1.0000   1.0000   1.0000   1.0000   1.0000   1.0000   1.0000   1.0000
     1.0008   0.2959  -0.0000  -0.0000  -0.0000  -0.0000  -0.0000  -0.0000
    -0.0000  -0.0000

          k = 0.1667-0.5000 0.2500 (  1320 PWs)   bands (ev):

   -72.5558 -69.3378 -39.2407 -38.9181 -38.0606 -35.8185 -35.3476 -34.9574
    11.1895  11.5916  12.2483  12.2692  12.6795  12.9251  13.4799  13.6146
    13.6342  13.7049  13.7567  14.0642  14.3180  15.0394  15.1214  15.2619
    15.4179  15.8623  16.5750  17.6595  17.7171  17.7457  18.8407  19.0544
    22.4047  22.8552

     occupation numbers 
     1.0000   1.0000   1.0000   1.0000   1.0000   1.0000   1.0000   1.0000
     1.0000   1.0000   1.0000   1.0000   1.0000   1.0000   1.0000   1.0000
     1.0000   1.0000   1.0000   1.0000   1.0000   1.0000   1.0000   1.0000
     1.0000   0.7441  -0.0000  -0.0000  -0.0000  -0.0000  -0.0000  -0.0000
    -0.0000  -0.0000

          k = 0.1667-0.5000-0.3500 (  1320 PWs)   bands (ev):

   -72.5558 -69.3378 -39.2406 -38.9188 -38.0604 -35.8183 -35.3484 -34.9573
    11.1250  11.5557  12.2301  12.2346  12.7520  13.1116  13.4471  13.6633
    13.7067  13.7257  13.8829  14.3686  14.5196  14.7189  15.1925  15.2673
    15.3755  15.8403  16.4530  17.7689  17.8328  17.9028  18.8750  19.0875
    21.6876  22.2122

     occupation numbers 
     1.0000   1.0000   1.0000   1.0000   1.0000   1.0000   1.0000   1.0000
     1.0000   1.0000   1.0000   1.0000   1.0000   1.0000   1.0000   1.0000
     1.0000   1.0000   1.0000   1.0000   1.0000   1.0000   1.0000   1.0000
     1.0000   0.8500  -0.0000  -0.0000  -0.0000  -0.0000  -0.0000  -0.0000
    -0.0000  -0.0000

          k = 0.2778 0.2778 0.0500 (  1316 PWs)   bands (ev):

   -72.5580 -69.3402 -39.2260 -38.9172 -38.0590 -35.7972 -35.3467 -34.9605
    10.2929  10.5768  11.7863  12.2427  12.4039  12.9117  13.0747  13.4205
    13.4763  13.8453  14.0494  14.4437  14.5282  14.5518  14.7972  14.9543
    15.4738  16.1781  16.2832  16.8751  16.9283  17.4108  23.0450  23.5171
    23.6128  24.2345

     occupation numbers 
     1.0000   1.0000   1.0000   1.0000   1.0000   1.0000   1.0000   1.0000
     1.0000   1.0000   1.0000   1.0000   1.0000   1.0000   1.0000   1.0000
     1.0000   1.0000   1.0000   1.0000   1.0000   1.0000   1.0000   1.0000
     1.0000  -0.0075  -0.0003  -0.0000  -0.0000  -0.0000  -0.0000  -0.0000
    -0.0000  -0.0000

          k = 0.2778 0.2778 0.1500 (  1314 PWs)   bands (ev):

   -72.5579 -69.3402 -39.2259 -38.9182 -38.0588 -35.7971 -35.3481 -34.9603
    10.6489  10.9615  12.0193  12.3030  12.3451  13.0403  13.1146  13.3316
    13.4045  13.5162  14.0284  14.3576  14.4627  14.5338  14.5969  15.2212
    15.5337  15.8329  16.2889  16.8706  17.1121  17.4026  21.0402  21.9509
    23.7768  24.3562

     occupation numbers 
     1.0000   1.0000   1.0000   1.0000   1.0000   1.0000   1.0000   1.0000
     1.0000   1.0000   1.0000   1.0000   1.0000   1.0000   1.0000   1.0000
     1.0000   1.0000   1.0000   1.0000   1.0000   1.0000   1.0000   1.0000
     1.0004   0.8805  -0.0002  -0.0000  -0.0000  -0.0000  -0.0000  -0.0000
    -0.0000  -0.0000

          k = 0.2778 0.2778 0.2500 (  1318 PWs)   bands (ev):

   -72.5579 -69.3401 -39.2260 -38.9194 -38.0589 -35.7972 -35.3497 -34.9604
    11.2226  11.6299  12.1418  12.3996  12.5218  12.9066  12.9735  13.0880
    13.5782  13.6484  13.9740  14.0945  14.2504  14.4032  14.5550  14.9066
    15.2819  16.3147  16.3672  16.7458  16.8081  18.0877  18.9493  20.1536
    25.0613  25.6527

     occupation numbers 
     1.0000   1.0000   1.0000   1.0000   1.0000   1.0000   1.0000   1.0000
     1.0000   1.0000   1.0000   1.0000   1.0000   1.0000   1.0000   1.0000
     1.0000   1.0000   1.0000   1.0000   1.0000   1.0000   1.0000   1.0000
     1.0000  -0.0001  -0.0000  -0.0000  -0.0000  -0.0000  -0.0000  -0.0000
    -0.0000  -0.0000

          k = 0.2778 0.2778-0.3500 (  1330 PWs)   bands (ev):

   -72.5579 -69.3401 -39.2263 -38.9201 -38.0591 -35.7975 -35.3507 -34.9605
    11.6191  11.9822  12.2860  12.4444  12.6479  12.6559  12.8762  12.9727
    13.7428  13.8011  13.8688  13.9450  14.1238  14.4081  14.5995  14.7290
    14.8664  16.3657  16.5614  16.7535  17.4234  17.4499  18.8895  18.9919
    26.5123  26.9646

     occupation numbers 
     1.0000   1.0000   1.0000   1.0000   1.0000   1.0000   1.0000   1.0000
     1.0000   1.0000   1.0000   1.0000   1.0000   1.0000   1.0000   1.0000
     1.0000   1.0000   1.0000   1.0000   1.0000   1.0000   1.0000   1.0000
     1.0000  -0.0000  -0.0000  -0.0000  -0.0000  -0.0000  -0.0000  -0.0000
    -0.0000  -0.0000

          k = 0.2778 0.3889 0.0500 (  1317 PWs)   bands (ev):

   -72.5503 -69.3317 -39.2545 -38.9125 -38.0886 -35.8297 -35.3402 -34.9932
    10.9321  11.5537  11.6160  11.9569  12.0723  12.6761  13.0799  13.2177
    13.5998  14.0450  14.4485  14.6371  14.6597  15.1166  15.1718  15.4025
    15.6802  16.3715  16.5386  16.9882  17.3226  17.5565  20.4628  21.2693
    25.3168  25.9023

     occupation numbers 
     1.0000   1.0000   1.0000   1.0000   1.0000   1.0000   1.0000   1.0000
     1.0000   1.0000   1.0000   1.0000   1.0000   1.0000   1.0000   1.0000
     1.0000   1.0000   1.0000   1.0000   1.0000   1.0000   1.0000   1.0000
     1.0212  -0.0000  -0.0000  -0.0000  -0.0000  -0.0000  -0.0000  -0.0000
    -0.0000  -0.0000

          k = 0.2778 0.3889 0.1500 (  1318 PWs)   bands (ev):

   -72.5503 -69.3316 -39.2545 -38.9134 -38.0886 -35.8298 -35.3415 -34.9932
    11.1940  11.8190  11.8701  12.0485  12.1847  12.8960  13.0859  13.3064
    13.4848  13.5596  14.3349  14.4023  14.4618  14.8707  15.1698  15.3239
    15.8646  16.4003  16.5153  16.8690  17.5089  17.9778  20.9438  21.7577
    22.9798  23.7015

     occupation numbers 
     1.0000   1.0000   1.0000   1.0000   1.0000   1.0000   1.0000   1.0000
     1.0000   1.0000   1.0000   1.0000   1.0000   1.0000   1.0000   1.0000
     1.0000   1.0000   1.0000   1.0000   1.0000   1.0000   1.0000   1.0000
     0.7318  -0.0000  -0.0000  -0.0000  -0.0000  -0.0000  -0.0000  -0.0000
    -0.0000  -0.0000

          k = 0.2778 0.3889 0.2500 (  1326 PWs)   bands (ev):

   -72.5503 -69.3316 -39.2546 -38.9148 -38.0887 -35.8299 -35.3433 -34.9932
    11.5581  12.0432  12.2023  12.3578  12.5090  12.9685  13.0388  13.2617
    13.3324  13.5624  14.1207  14.1546  14.2756  14.6114  15.0183  15.2038
    15.3190  16.4141  16.6636  17.4253  17.4783  18.8309  20.1997  21.1275
    22.7397  23.5177

     occupation numbers 
     1.0000   1.0000   1.0000   1.0000   1.0000   1.0000   1.0000   1.0000
     1.0000   1.0000   1.0000   1.0000   1.0000   1.0000   1.0000   1.0000
     1.0000   1.0000   1.0000   1.0000   1.0000   1.0000   1.0000   1.0000
     1.0000  -0.0000  -0.0000  -0.0000  -0.0000  -0.0000  -0.0000  -0.0000
    -0.0000  -0.0000

          k = 0.2778 0.3889-0.3500 (  1324 PWs)   bands (ev):

   -72.5502 -69.3316 -39.2545 -38.9154 -38.0885 -35.8299 -35.3441 -34.9931
    11.7511  12.0910  12.3440  12.7333  12.7760  12.7866  12.8556  13.1682
    13.4335  13.7630  13.9507  14.1215  14.2183  14.4169  14.9484  14.9614
    15.1638  16.3354  16.6173  17.4201  18.6328  18.7270  19.8341  19.8733
    23.8633  24.3543

     occupation numbers 
     1.0000   1.0000   1.0000   1.0000   1.0000   1.0000   1.0000   1.0000
     1.0000   1.0000   1.0000   1.0000   1.0000   1.0000   1.0000   1.0000
     1.0000   1.0000   1.0000   1.0000   1.0000   1.0000   1.0000   1.0000
     1.0000  -0.0000  -0.0000  -0.0000  -0.0000  -0.0000  -0.0000  -0.0000
    -0.0000  -0.0000

          k = 0.2778-0.5000 0.0500 (  1324 PWs)   bands (ev):

   -72.5473 -69.3283 -39.2665 -38.9107 -38.0998 -35.8438 -35.3376 -35.0051
    11.1854  11.4825  11.8364  11.9720  12.2134  12.2937  12.9561  13.1292
    13.9023  13.9505  14.5515  14.7826  14.7883  15.2370  15.2999  15.4712
    16.4328  16.7504  16.8619  17.3882  17.5898  17.9074  18.4343  19.4884
    27.3571  27.7382

     occupation numbers 
     1.0000   1.0000   1.0000   1.0000   1.0000   1.0000   1.0000   1.0000
     1.0000   1.0000   1.0000   1.0000   1.0000   1.0000   1.0000   1.0000
     1.0000   1.0000   1.0000   1.0000   1.0000   1.0000   1.0000   1.0000
    -0.0000  -0.0000  -0.0000  -0.0000  -0.0000  -0.0000  -0.0000  -0.0000
    -0.0000  -0.0000

          k = 0.2778-0.5000 0.1500 (  1322 PWs)   bands (ev):

   -72.5472 -69.3283 -39.2664 -38.9116 -38.0997 -35.8437 -35.3390 -35.0050
    11.3414  11.6986  11.9571  12.1524  12.4018  12.5607  13.0257  13.2547
    13.6636  13.7057  14.3545  14.3885  14.4680  15.1930  15.3085  15.4742
    15.8456  16.6379  16.7045  17.6838  18.2511  18.4429  19.2666  19.7636
    24.9590  25.3202

     occupation numbers 
     1.0000   1.0000   1.0000   1.0000   1.0000   1.0000   1.0000   1.0000
     1.0000   1.0000   1.0000   1.0000   1.0000   1.0000   1.0000   1.0000
     1.0000   1.0000   1.0000   1.0000   1.0000   1.0000   1.0000   1.0000
     0.8268  -0.0000  -0.0000  -0.0000  -0.0000  -0.0000  -0.0000  -0.0000
    -0.0000  -0.0000

          k = 0.2778-0.5000 0.2500 (  1326 PWs)   bands (ev):

   -72.5472 -69.3282 -39.2664 -38.9130 -38.0997 -35.8438 -35.3407 -35.0050
    11.5698  11.9874  12.0979  12.5083  12.6559  12.9078  13.1012  13.2065
    13.4276  13.5878  14.1040  14.1315  14.2538  14.9425  15.2119  15.2608
    15.4518  16.4529  16.6289  17.7675  19.2207  19.2504  20.2549  20.2701
    23.0137  23.4007

     occupation numbers 
     1.0000   1.0000   1.0000   1.0000   1.0000   1.0000   1.0000   1.0000
     1.0000   1.0000   1.0000   1.0000   1.0000   1.0000   1.0000   1.0000
     1.0000   1.0000   1.0000   1.0000   1.0000   1.0000   1.0000   1.0000
     1.0000  -0.0000  -0.0000  -0.0000  -0.0000  -0.0000  -0.0000  -0.0000
    -0.0000  -0.0000

          k = 0.2778-0.5000-0.3500 (  1328 PWs)   bands (ev):

   -72.5472 -69.3282 -39.2665 -38.9135 -38.0997 -35.8438 -35.3415 -35.0050
    11.7125  12.1061  12.1744  12.6708  12.7962  13.0298  13.0538  13.1161
    13.3632  13.8384  13.9326  14.0629  14.1619  14.8639  14.8888  15.1536
    15.4101  16.3639  16.6054  17.7515  19.7575  19.8786  20.5664  20.8772
    22.0418  22.5308

     occupation numbers 
     1.0000   1.0000   1.0000   1.0000   1.0000   1.0000   1.0000   1.0000
     1.0000   1.0000   1.0000   1.0000   1.0000   1.0000   1.0000   1.0000
     1.0000   1.0000   1.0000   1.0000   1.0000   1.0000   1.0000   1.0000
     1.0000  -0.0000  -0.0000  -0.0000  -0.0000  -0.0000  -0.0000  -0.0000
    -0.0000  -0.0000

          k = 0.3889 0.3889 0.0500 (  1317 PWs)   bands (ev):

   -72.5427 -69.3232 -39.2802 -38.9076 -38.1198 -35.8575 -35.3336 -35.0291
    10.8849  11.3414  11.7062  11.7280  11.8602  12.3416  12.8400  12.8791
    14.4257  14.8674  14.9092  15.1201  15.2912  15.3297  15.4971  15.9419
    16.3753  16.5658  17.0792  17.3854  17.5124  17.6739  20.1707  20.7551
    25.3617  26.2695

     occupation numbers 
     1.0000   1.0000   1.0000   1.0000   1.0000   1.0000   1.0000   1.0000
     1.0000   1.0000   1.0000   1.0000   1.0000   1.0000   1.0000   1.0000
     1.0000   1.0000   1.0000   1.0000   1.0000   1.0000   1.0001   0.2717
    -0.0000  -0.0000  -0.0000  -0.0000  -0.0000  -0.0000  -0.0000  -0.0000
    -0.0000  -0.0000

          k = 0.3889 0.3889 0.1500 (  1326 PWs)   bands (ev):

   -72.5427 -69.3232 -39.2804 -38.9089 -38.1199 -35.8577 -35.3352 -35.0292
    11.1398  11.6108  11.8707  11.8777  12.1559  12.6265  12.9501  13.0246
    13.9663  14.0422  14.7224  14.9033  15.0720  15.1646  15.2362  15.4615
    16.0611  16.5968  17.3916  17.5324  17.6679  18.6988  21.1279  21.7609
    24.1253  24.7659

     occupation numbers 
     1.0000   1.0000   1.0000   1.0000   1.0000   1.0000   1.0000   1.0000
     1.0000   1.0000   1.0000   1.0000   1.0000   1.0000   1.0000   1.0000
     1.0000   1.0000   1.0000   1.0000   1.0000   1.0000   1.0000   1.0000
    -0.0347  -0.0000  -0.0000  -0.0000  -0.0000  -0.0000  -0.0000  -0.0000
    -0.0000  -0.0000

          k = 0.3889 0.3889 0.2500 (  1327 PWs)   bands (ev):

   -72.5426 -69.3231 -39.2804 -38.9101 -38.1199 -35.8579 -35.3369 -35.0292
    11.5315  12.0498  12.1185  12.2100  12.5745  13.1040  13.1523  13.1872
    13.3092  13.4211  14.4096  14.4532  14.5815  14.6073  15.1194  15.4454
    15.5197  16.3345  17.2127  17.7163  18.8558  19.9311  22.0681  22.6666
    22.8305  23.3130

     occupation numbers 
     1.0000   1.0000   1.0000   1.0000   1.0000   1.0000   1.0000   1.0000
     1.0000   1.0000   1.0000   1.0000   1.0000   1.0000   1.0000   1.0000
     1.0000   1.0000   1.0000   1.0000   1.0000   1.0000   1.0000   1.0000
     1.0002  -0.0000  -0.0000  -0.0000  -0.0000  -0.0000  -0.0000  -0.0000
    -0.0000  -0.0000

          k = 0.3889 0.3889-0.3500 (  1332 PWs)   bands (ev):

   -72.5427 -69.3231 -39.2804 -38.9110 -38.1199 -35.8579 -35.3380 -35.0292
    11.7794  12.2259  12.4370  12.5583  12.6949  12.8005  12.9531  13.1729
    13.5383  13.7840  13.8734  14.2044  14.2930  14.3887  15.1032  15.1732
    15.4518  16.2676  17.1136  17.7282  20.2540  20.4139  21.1967  21.3321
    24.4188  24.6817

     occupation numbers 
     1.0000   1.0000   1.0000   1.0000   1.0000   1.0000   1.0000   1.0000
     1.0000   1.0000   1.0000   1.0000   1.0000   1.0000   1.0000   1.0000
     1.0000   1.0000   1.0000   1.0000   1.0000   1.0000   1.0000   1.0000
     1.0000  -0.0005  -0.0000  -0.0000  -0.0000  -0.0000  -0.0000  -0.0000
    -0.0000  -0.0000

          k = 0.3889-0.5000 0.0500 (  1322 PWs)   bands (ev):

   -72.5397 -69.3198 -39.2910 -38.9058 -38.1315 -35.8696 -35.3311 -35.0422
    10.8265  11.2526  11.5908  11.6275  11.9814  12.1660  12.7271  12.7795
    14.8494  15.0290  15.0646  15.0849  15.3819  15.5519  15.6676  16.5349
    16.6435  17.0023  17.5352  17.6089  18.2312  18.3652  18.7617  19.3379
    26.1920  26.5589

     occupation numbers 
     1.0000   1.0000   1.0000   1.0000   1.0000   1.0000   1.0000   1.0000
     1.0000   1.0000   1.0000   1.0000   1.0000   1.0000   1.0000   1.0000
     1.0000   1.0000   1.0000   1.0000   1.0000   1.0008   1.0171  -0.0000
    -0.0000  -0.0000  -0.0000  -0.0000  -0.0000  -0.0000  -0.0000  -0.0000
    -0.0000  -0.0000

          k = 0.3889-0.5000 0.1500 (  1326 PWs)   bands (ev):

   -72.5397 -69.3198 -39.2911 -38.9071 -38.1315 -35.8697 -35.3327 -35.0422
    11.0599  11.5355  11.7585  11.8150  12.2101  12.5087  12.8743  12.9429
    14.2179  14.2524  14.8190  14.8393  15.2648  15.3240  15.6499  15.6917
    16.0956  16.5145  17.4241  17.9682  19.2977  19.3754  20.0583  20.2284
    26.1459  26.2625

     occupation numbers 
     1.0000   1.0000   1.0000   1.0000   1.0000   1.0000   1.0000   1.0000
     1.0000   1.0000   1.0000   1.0000   1.0000   1.0000   1.0000   1.0000
     1.0000   1.0000   1.0000   1.0000   1.0000   1.0000   1.0121   1.0251
    -0.0313  -0.0000  -0.0000  -0.0000  -0.0000  -0.0000  -0.0000  -0.0000
    -0.0000  -0.0000

          k = 0.3889-0.5000 0.2500 (  1324 PWs)   bands (ev):

   -72.5396 -69.3197 -39.2912 -38.9082 -38.1316 -35.8699 -35.3342 -35.0422
    11.4202  11.9882  12.0508  12.1782  12.5401  13.0974  13.1170  13.2535
    13.3912  13.4598  14.4624  14.5118  14.5869  14.8835  15.2730  15.5187
    15.6730  16.3358  17.2367  18.0472  20.7514  20.7790  21.5511  21.5671
    24.2730  24.4819

     occupation numbers 
     1.0000   1.0000   1.0000   1.0000   1.0000   1.0000   1.0000   1.0000
     1.0000   1.0000   1.0000   1.0000   1.0000   1.0000   1.0000   1.0000
     1.0000   1.0000   1.0000   1.0000   1.0000   1.0000   1.0000   1.0002
     1.0188  -0.0000  -0.0000  -0.0000  -0.0000  -0.0000  -0.0000  -0.0000
    -0.0000  -0.0000

          k = 0.3889-0.5000-0.3500 (  1328 PWs)   bands (ev):

   -72.5396 -69.3197 -39.2911 -38.9091 -38.1315 -35.8699 -35.3354 -35.0422
    11.6313  12.2608  12.3040  12.6368  12.6858  12.7349  13.0507  13.2664
    13.4974  13.6631  13.9348  14.2377  14.3941  14.5319  15.1561  15.2602
    15.6716  16.2945  17.1333  18.0595  21.9140  22.0565  22.5931  22.8133
    22.8558  23.1725

     occupation numbers 
     1.0000   1.0000   1.0000   1.0000   1.0000   1.0000   1.0000   1.0000
     1.0000   1.0000   1.0000   1.0000   1.0000   1.0000   1.0000   1.0000
     1.0000   1.0000   1.0000   1.0000   1.0000   1.0000   1.0000   1.0000
     1.0184  -0.0002  -0.0000  -0.0000  -0.0000  -0.0000  -0.0000  -0.0000
    -0.0000  -0.0000

          k =-0.5000-0.5000 0.0500 (  1296 PWs)   bands (ev):

   -72.5365 -69.3164 -39.3007 -38.9037 -38.1427 -35.8802 -35.3282 -35.0550
    10.6920  11.1638  11.4986  11.5058  11.8875  12.0957  12.6303  12.6657
    15.1555  15.1652  15.3211  15.3456  15.4010  15.8834  16.3036  16.5741
    17.0240  17.0284  17.7175  18.3951  18.6063  18.6157  18.8500  18.8630
    25.0736  25.4715

     occupation numbers 
     1.0000   1.0000   1.0000   1.0000   1.0000   1.0000   1.0000   1.0000
     1.0000   1.0000   1.0000   1.0000   1.0000   1.0000   1.0000   1.0000
     1.0000   1.0000   1.0000   1.0000   1.0000   0.6238  -0.0001  -0.0000
    -0.0000  -0.0000  -0.0000  -0.0000  -0.0000  -0.0000  -0.0000  -0.0000
    -0.0000  -0.0000

          k =-0.5000-0.5000 0.1500 (  1324 PWs)   bands (ev):

   -72.5367 -69.3164 -39.3013 -38.9053 -38.1433 -35.8809 -35.3302 -35.0556
    10.9295  11.4541  11.6936  11.6995  12.1138  12.4423  12.8104  12.8479
    14.4604  14.4856  14.9192  14.9283  15.3910  15.8428  15.8797  15.9107
    16.1987  16.3028  17.5530  18.3955  19.8878  19.8982  20.4238  20.4305
    25.2023  25.5292

     occupation numbers 
     1.0000   1.0000   1.0000   1.0000   1.0000   1.0000   1.0000   1.0000
     1.0000   1.0000   1.0000   1.0000   1.0000   1.0000   1.0000   1.0000
     1.0000   1.0000   1.0000   1.0000   1.0000   0.8392   0.6459   0.4553
    -0.0045  -0.0001  -0.0000  -0.0000  -0.0000  -0.0000  -0.0000  -0.0000
    -0.0000  -0.0000

          k =-0.5000-0.5000 0.2500 (  1324 PWs)   bands (ev):

   -72.5366 -69.3164 -39.3015 -38.9065 -38.1434 -35.8811 -35.3318 -35.0557
    11.2786  11.9060  12.0801  12.0805  12.4280  13.0234  13.1477  13.1931
    13.5331  13.5627  14.5086  14.5872  14.8955  14.8993  15.3933  15.5720
    15.8856  16.3038  17.3106  18.3960  21.6529  21.6636  22.2549  22.2571
    25.5062  25.6391

     occupation numbers 
     1.0000   1.0000   1.0000   1.0000   1.0000   1.0000   1.0000   1.0000
     1.0000   1.0000   1.0000   1.0000   1.0000   1.0000   1.0000   1.0000
     1.0000   1.0000   1.0000   1.0000   1.0000   1.0000   1.0000   1.0015
     0.6105  -0.0001  -0.0000  -0.0000  -0.0000  -0.0000  -0.0000  -0.0000
    -0.0000  -0.0000

          k =-0.5000-0.5000-0.3500 (  1320 PWs)   bands (ev):

   -72.5365 -69.3163 -39.3012 -38.9075 -38.1431 -35.8810 -35.3330 -35.0555
    11.4631  12.1683  12.4838  12.5133  12.5791  12.9027  12.9698  13.4196
    13.4246  13.4889  14.2419  14.3927  14.4120  14.4154  15.1565  15.3914
    15.8854  16.3047  17.1855  18.3962  23.5513  23.6707  23.6712  23.7790
    24.1801  24.2132

     occupation numbers 
     1.0000   1.0000   1.0000   1.0000   1.0000   1.0000   1.0000   1.0000
     1.0000   1.0000   1.0000   1.0000   1.0000   1.0000   1.0000   1.0000
     1.0000   1.0000   1.0000   1.0000   1.0000   1.0000   1.0000   1.0000
     0.6118  -0.0001  -0.0000  -0.0000  -0.0000  -0.0000  -0.0000  -0.0000
    -0.0000  -0.0000

     the Fermi energy is    15.9035 ev
     (compare with:    15.9315 eV, computed in scf)

     Writing all to output data dir ./work/pwscf.save/
 
     init_run     :      0.73s CPU      0.80s WALL (       1 calls)
     electrons    :     14.50s CPU     15.22s WALL (       1 calls)

     Called by init_run:
     wfcinit      :      0.00s CPU      0.00s WALL (       1 calls)
     wfcinit:atom :      0.00s CPU      0.00s WALL (      20 calls)
     wfcinit:wfcr :      0.30s CPU      0.32s WALL (      20 calls)
     potinit      :      0.06s CPU      0.07s WALL (       1 calls)
     hinit0       :      0.36s CPU      0.39s WALL (       1 calls)

     Called by electrons:
     c_bands      :     14.49s CPU     15.22s WALL (       1 calls)
     v_of_rho     :      0.02s CPU      0.03s WALL (       1 calls)
     v_h          :      0.00s CPU      0.00s WALL (       1 calls)
     v_xc         :      0.02s CPU      0.03s WALL (       1 calls)
     newd         :      0.14s CPU      0.16s WALL (       1 calls)

     Called by c_bands:
     init_us_2    :      0.00s CPU      0.00s WALL (      20 calls)
     init_us_2:cp :      0.00s CPU      0.00s WALL (      20 calls)
     cegterg      :     13.16s CPU     13.73s WALL (      73 calls)

     Called by sum_band:

     Called by *egterg:
     cdiaghg      :      1.95s CPU      1.99s WALL (    1285 calls)
     cegterg:over :      0.59s CPU      0.63s WALL (    1265 calls)
     cegterg:upda :      0.30s CPU      0.30s WALL (    1265 calls)
     cegterg:last :      0.80s CPU      0.80s WALL (     930 calls)
     h_psi        :      8.98s CPU      9.45s WALL (    1358 calls)
     s_psi        :      0.56s CPU      0.57s WALL (    1358 calls)
     g_psi        :      0.06s CPU      0.06s WALL (    1265 calls)

     Called by h_psi:
     h_psi:calbec :      0.32s CPU      0.35s WALL (    1358 calls)
     vloc_psi     :      8.02s CPU      8.45s WALL (    1358 calls)
     add_vuspsi   :      0.59s CPU      0.61s WALL (    1358 calls)

     General routines
     calbec       :      0.32s CPU      0.35s WALL (    1358 calls)
     fft          :      0.01s CPU      0.04s WALL (      31 calls)
     ffts         :      0.00s CPU      0.00s WALL (       4 calls)
     fftw         :      5.48s CPU      5.81s WALL (  129576 calls)
     interpolate  :      0.00s CPU      0.00s WALL (       4 calls)
 
     Parallel routines
 
     PWSCF        :     15.80s CPU     18.76s WALL

 
   This run was terminated on:   8: 3:26  15Nov2022            

=------------------------------------------------------------------------------=
   JOB DONE.
=------------------------------------------------------------------------------=
