
     Program PWSCF v.7.0 starts on 11Jul2023 at 21:39:30 

     This program is part of the open-source Quantum ESPRESSO suite
     for quantum simulation of materials; please cite
         "P. Giannozzi et al., J. Phys.:Condens. Matter 21 395502 (2009);
         "P. Giannozzi et al., J. Phys.:Condens. Matter 29 465901 (2017);
         "P. Giannozzi et al., J. Chem. Phys. 152 154105 (2020);
          URL http://www.quantum-espresso.org", 
     in publications or presentations arising from this work. More details at
     http://www.quantum-espresso.org/quote

     Parallel version (MPI), running on    22 processors

     MPI processes distributed on     1 nodes
     R & G space division:  proc/nbgrp/npool/nimage =      22
     188103 MiB available memory on the printing compute node when the environment starts
 
     Waiting for input...
     Reading input from standard input

     Current dimensions of program PWSCF are:
     Max number of different atomic species (ntypx) = 10
     Max number of k-points (npk) =  40000
     Max angular momentum in pseudopotentials (lmaxx) =  4
     file Ni.rel-pbe-n-rrkjus_psl.0.1.UPF: wavefunction(s)  3D renormalized

     Fixed quantization axis for GGA:     0.000000    0.000000    1.000000

     Subspace diagonalization in iterative solution of the eigenvalue problem:
     a serial algorithm will be used

 
     Parallelization info
     --------------------
     sticks:   dense  smooth     PW     G-vecs:    dense   smooth      PW
     Min          63      20      6                 2543      474      82
     Max          64      22      7                 2548      477      87
     Sum        1389     457    145                55993    10451    1843
 
     Using Slab Decomposition
 


     bravais-lattice index     =            6
     lattice parameter (alat)  =       4.7368  a.u.
     unit-cell volume          =     151.8494 (a.u.)^3
     number of atoms/cell      =            2
     number of atomic types    =            2
     number of electrons       =        26.00
     number of Kohn-Sham states=           98
     kinetic-energy cutoff     =      64.0000  Ry
     charge density cutoff     =     782.0000  Ry
     Exchange-correlation= PBE
                           (   1   4   3   4   0   0   0)
     Noncollinear calculation with spin-orbit


     celldm(1)=   4.736808  celldm(2)=   0.000000  celldm(3)=   1.428748
     celldm(4)=   0.000000  celldm(5)=   0.000000  celldm(6)=   0.000000

     crystal axes: (cart. coord. in units of alat)
               a(1) = (   1.000000   0.000000   0.000000 )  
               a(2) = (   0.000000   1.000000   0.000000 )  
               a(3) = (   0.000000   0.000000   1.428748 )  

     reciprocal axes: (cart. coord. in units 2 pi/alat)
               b(1) = (  1.000000  0.000000  0.000000 )  
               b(2) = (  0.000000  1.000000  0.000000 )  
               b(3) = (  0.000000  0.000000  0.699913 )  


     PseudoPot. # 1 for Fe read from file:
     /home2/koretsune/PWSCF/pseudo_psl031/Fe.rel-pbe-spn-rrkjus_psl.0.2.1.UPF
     MD5 check sum: e4688d448a4fb973b820eb5309e921a0
     Pseudo is Ultrasoft + core correction, Zval = 16.0
     Generated using "atomic" code by A. Dal Corso  v.5.0.99 svn rev. 10869
     Using radial grid of 1191 points, 10 beta functions with: 
                l(1) =   0
                l(2) =   0
                l(3) =   1
                l(4) =   1
                l(5) =   1
                l(6) =   1
                l(7) =   2
                l(8) =   2
                l(9) =   2
               l(10) =   2
     Q(r) pseudized with 0 coefficients 


     PseudoPot. # 2 for Ni read from file:
     /home2/koretsune/PWSCF/pseudo_psl031/Ni.rel-pbe-n-rrkjus_psl.0.1.UPF
     MD5 check sum: 6acd078e557c765e7fbba3d1e9889675
     Pseudo is Ultrasoft + core correction, Zval = 10.0
     Generated using "atomic" code by A. Dal Corso  v.5.0.99 svn rev. 10869
     Using radial grid of 1195 points, 10 beta functions with: 
                l(1) =   0
                l(2) =   0
                l(3) =   1
                l(4) =   1
                l(5) =   1
                l(6) =   1
                l(7) =   2
                l(8) =   2
                l(9) =   2
               l(10) =   2
     Q(r) pseudized with 0 coefficients 


     atomic species   valence    mass     pseudopotential
        Fe            16.00    55.84500     Fe( 1.00)
        Ni            10.00    58.69340     Ni( 1.00)

     16 Sym. Ops., with inversion, found


                                    s                        frac. trans.

      isym =  1     identity                                     

 Time Reversal            0
 cryst.   s( 1) = (     1          0          0      )
                  (     0          1          0      )
                  (     0          0          1      )

 cart.    s( 1) = (  1.0000000  0.0000000  0.0000000 )
                  (  0.0000000  1.0000000  0.0000000 )
                  (  0.0000000  0.0000000  1.0000000 )


      isym =  2     180 deg rotation - cart. axis [0,0,1]        

 Time Reversal            0
 cryst.   s( 2) = (    -1          0          0      )
                  (     0         -1          0      )
                  (     0          0          1      )

 cart.    s( 2) = ( -1.0000000  0.0000000  0.0000000 )
                  (  0.0000000 -1.0000000  0.0000000 )
                  (  0.0000000  0.0000000  1.0000000 )


      isym =  3     180 deg rotation - cart. axis [0,1,0]        

 Time Reversal            1
 cryst.   s( 3) = (    -1          0          0      )
                  (     0          1          0      )
                  (     0          0         -1      )

 cart.    s( 3) = ( -1.0000000  0.0000000  0.0000000 )
                  (  0.0000000  1.0000000  0.0000000 )
                  (  0.0000000  0.0000000 -1.0000000 )


      isym =  4     180 deg rotation - cart. axis [1,0,0]        

 Time Reversal            1
 cryst.   s( 4) = (     1          0          0      )
                  (     0         -1          0      )
                  (     0          0         -1      )

 cart.    s( 4) = (  1.0000000  0.0000000  0.0000000 )
                  (  0.0000000 -1.0000000  0.0000000 )
                  (  0.0000000  0.0000000 -1.0000000 )


      isym =  5     180 deg rotation - cart. axis [1,1,0]        

 Time Reversal            1
 cryst.   s( 5) = (     0          1          0      )
                  (     1          0          0      )
                  (     0          0         -1      )

 cart.    s( 5) = (  0.0000000  1.0000000  0.0000000 )
                  (  1.0000000  0.0000000  0.0000000 )
                  (  0.0000000  0.0000000 -1.0000000 )


      isym =  6     180 deg rotation - cart. axis [1,-1,0]       

 Time Reversal            1
 cryst.   s( 6) = (     0         -1          0      )
                  (    -1          0          0      )
                  (     0          0         -1      )

 cart.    s( 6) = (  0.0000000 -1.0000000  0.0000000 )
                  ( -1.0000000  0.0000000  0.0000000 )
                  (  0.0000000  0.0000000 -1.0000000 )


      isym =  7      90 deg rotation - cart. axis [0,0,-1]       

 Time Reversal            0
 cryst.   s( 7) = (     0         -1          0      )
                  (     1          0          0      )
                  (     0          0          1      )

 cart.    s( 7) = (  0.0000000  1.0000000  0.0000000 )
                  ( -1.0000000  0.0000000  0.0000000 )
                  (  0.0000000  0.0000000  1.0000000 )


      isym =  8      90 deg rotation - cart. axis [0,0,1]        

 Time Reversal            0
 cryst.   s( 8) = (     0          1          0      )
                  (    -1          0          0      )
                  (     0          0          1      )

 cart.    s( 8) = (  0.0000000 -1.0000000  0.0000000 )
                  (  1.0000000  0.0000000  0.0000000 )
                  (  0.0000000  0.0000000  1.0000000 )


      isym =  9     inversion                                    

 Time Reversal            0
 cryst.   s( 9) = (    -1          0          0      )
                  (     0         -1          0      )
                  (     0          0         -1      )

 cart.    s( 9) = ( -1.0000000  0.0000000  0.0000000 )
                  (  0.0000000 -1.0000000  0.0000000 )
                  (  0.0000000  0.0000000 -1.0000000 )


      isym = 10     inv. 180 deg rotation - cart. axis [0,0,1]   

 Time Reversal            0
 cryst.   s(10) = (     1          0          0      )
                  (     0          1          0      )
                  (     0          0         -1      )

 cart.    s(10) = (  1.0000000  0.0000000  0.0000000 )
                  (  0.0000000  1.0000000  0.0000000 )
                  (  0.0000000  0.0000000 -1.0000000 )


      isym = 11     inv. 180 deg rotation - cart. axis [0,1,0]   

 Time Reversal            1
 cryst.   s(11) = (     1          0          0      )
                  (     0         -1          0      )
                  (     0          0          1      )

 cart.    s(11) = (  1.0000000  0.0000000  0.0000000 )
                  (  0.0000000 -1.0000000  0.0000000 )
                  (  0.0000000  0.0000000  1.0000000 )


      isym = 12     inv. 180 deg rotation - cart. axis [1,0,0]   

 Time Reversal            1
 cryst.   s(12) = (    -1          0          0      )
                  (     0          1          0      )
                  (     0          0          1      )

 cart.    s(12) = ( -1.0000000  0.0000000  0.0000000 )
                  (  0.0000000  1.0000000  0.0000000 )
                  (  0.0000000  0.0000000  1.0000000 )


      isym = 13     inv. 180 deg rotation - cart. axis [1,1,0]   

 Time Reversal            1
 cryst.   s(13) = (     0         -1          0      )
                  (    -1          0          0      )
                  (     0          0          1      )

 cart.    s(13) = (  0.0000000 -1.0000000  0.0000000 )
                  ( -1.0000000  0.0000000  0.0000000 )
                  (  0.0000000  0.0000000  1.0000000 )


      isym = 14     inv. 180 deg rotation - cart. axis [1,-1,0]  

 Time Reversal            1
 cryst.   s(14) = (     0          1          0      )
                  (     1          0          0      )
                  (     0          0          1      )

 cart.    s(14) = (  0.0000000  1.0000000  0.0000000 )
                  (  1.0000000  0.0000000  0.0000000 )
                  (  0.0000000  0.0000000  1.0000000 )


      isym = 15     inv.  90 deg rotation - cart. axis [0,0,-1]  

 Time Reversal            0
 cryst.   s(15) = (     0          1          0      )
                  (    -1          0          0      )
                  (     0          0         -1      )

 cart.    s(15) = (  0.0000000 -1.0000000  0.0000000 )
                  (  1.0000000  0.0000000  0.0000000 )
                  (  0.0000000  0.0000000 -1.0000000 )


      isym = 16     inv.  90 deg rotation - cart. axis [0,0,1]   

 Time Reversal            0
 cryst.   s(16) = (     0         -1          0      )
                  (     1          0          0      )
                  (     0          0         -1      )

 cart.    s(16) = (  0.0000000  1.0000000  0.0000000 )
                  ( -1.0000000  0.0000000  0.0000000 )
                  (  0.0000000  0.0000000 -1.0000000 )


     the magnetic double point group is D_4h(4/mmm) [C_4h (4/m) ]
     using the double point group C_4h (4/m) 
     there are 16 classes and  8 irreducible representations
     the character table:

       E     -E    C4    -C4   C2    -C2   C4^3  -C4^3 i     -i    S4^3  -S4^3
                                                                              
G_5+   1.00 -1.00  0.71 -0.71  0.00  0.00  0.71 -0.71  1.00 -1.00  0.71 -0.71
G_6+   1.00 -1.00  0.71 -0.71  0.00  0.00  0.71 -0.71  1.00 -1.00  0.71 -0.71
G_7+   1.00 -1.00 -0.71  0.71  0.00  0.00 -0.71  0.71  1.00 -1.00 -0.71  0.71
G_8+   1.00 -1.00 -0.71  0.71  0.00  0.00 -0.71  0.71  1.00 -1.00 -0.71  0.71
G_5-   1.00 -1.00  0.71 -0.71  0.00  0.00  0.71 -0.71 -1.00  1.00 -0.71  0.71
G_6-   1.00 -1.00  0.71 -0.71  0.00  0.00  0.71 -0.71 -1.00  1.00 -0.71  0.71
G_7-   1.00 -1.00 -0.71  0.71  0.00  0.00 -0.71  0.71 -1.00  1.00  0.71 -0.71
G_8-   1.00 -1.00 -0.71  0.71  0.00  0.00 -0.71  0.71 -1.00  1.00  0.71 -0.71

       s_h   -s_h  S4    -S4  
                              
G_5+   0.00  0.00  0.71 -0.71
G_6+   0.00  0.00  0.71 -0.71
G_7+   0.00  0.00 -0.71  0.71
G_8+   0.00  0.00 -0.71  0.71
G_5-   0.00  0.00 -0.71  0.71
G_6-   0.00  0.00 -0.71  0.71
G_7-   0.00  0.00  0.71 -0.71
G_8-   0.00  0.00  0.71 -0.71

     imaginary part

       E     -E    C4    -C4   C2    -C2   C4^3  -C4^3 i     -i    S4^3  -S4^3
                                                                              
G_5+   0.00  0.00  0.71 -0.71  1.00 -1.00 -0.71  0.71  0.00  0.00  0.71 -0.71
G_6+   0.00  0.00 -0.71  0.71 -1.00  1.00  0.71 -0.71  0.00  0.00 -0.71  0.71
G_7+   0.00  0.00 -0.71  0.71  1.00 -1.00  0.71 -0.71  0.00  0.00 -0.71  0.71
G_8+   0.00  0.00  0.71 -0.71 -1.00  1.00 -0.71  0.71  0.00  0.00  0.71 -0.71
G_5-   0.00  0.00  0.71 -0.71  1.00 -1.00 -0.71  0.71  0.00  0.00 -0.71  0.71
G_6-   0.00  0.00 -0.71  0.71 -1.00  1.00  0.71 -0.71  0.00  0.00  0.71 -0.71
G_7-   0.00  0.00 -0.71  0.71  1.00 -1.00  0.71 -0.71  0.00  0.00  0.71 -0.71
G_8-   0.00  0.00  0.71 -0.71 -1.00  1.00 -0.71  0.71  0.00  0.00 -0.71  0.71

       s_h   -s_h  S4    -S4  
                              
G_5+   1.00 -1.00 -0.71  0.71
G_6+  -1.00  1.00  0.71 -0.71
G_7+   1.00 -1.00  0.71 -0.71
G_8+  -1.00  1.00 -0.71  0.71
G_5-  -1.00  1.00  0.71 -0.71
G_6-   1.00 -1.00 -0.71  0.71
G_7-  -1.00  1.00 -0.71  0.71
G_8-   1.00 -1.00  0.71 -0.71

     the symmetry operations in each class and the name of the first element:

     E             1
          identity                                               
     -E           -1
          identity E                                             
     C4            4
           90 deg rotation - cart. axis [0,0,1]                  
     -C4          -4
           90 deg rotation - cart. axis [0,0,1] E                
     C2            2
          180 deg rotation - cart. axis [0,0,1]                  
     -C2          -2
          180 deg rotation - cart. axis [0,0,1] E                
     C4^3          3
           90 deg rotation - cart. axis [0,0,-1]                 
     -C4^3        -3
           90 deg rotation - cart. axis [0,0,-1] E               
     i             5
          inversion                                              
     -i           -5
          inversion E                                            
     S4^3          8
          inv.  90 deg rotation - cart. axis [0,0,1]             
     -S4^3        -8
          inv.  90 deg rotation - cart. axis [0,0,1] E           
     s_h           6
          inv. 180 deg rotation - cart. axis [0,0,1]             
     -s_h         -6
          inv. 180 deg rotation - cart. axis [0,0,1] E           
     S4            7
          inv.  90 deg rotation - cart. axis [0,0,-1]            
     -S4          -7
          inv.  90 deg rotation - cart. axis [0,0,-1] E          

   Cartesian axes

     site n.     atom                  positions (alat units)
         1           Fe  tau(   1) = (   0.0000000   0.0000000   0.0000000  )
         2           Ni  tau(   2) = (   0.5000000   0.5000000   0.7143741  )

   Crystallographic axes

     site n.     atom                  positions (cryst. coord.)
         1           Fe  tau(   1) = (  0.0000000  0.0000000  0.0000000  )
         2           Ni  tau(   2) = (  0.5000000  0.5000000  0.5000000  )

     number of k points=    60  Methfessel-Paxton smearing, width (Ry)=  0.0100
                       cart. coord. in units 2pi/alat
        k(    1) = (   0.0000000   0.0000000   0.0000000), wk =   0.0017637
        k(    2) = (   0.0000000   0.0000000   0.0999876), wk =   0.0035273
        k(    3) = (   0.0000000   0.0000000   0.1999753), wk =   0.0035273
        k(    4) = (   0.0000000   0.0000000   0.2999629), wk =   0.0035273
        k(    5) = (   0.0000000   0.1111111   0.0000000), wk =   0.0070547
        k(    6) = (   0.0000000   0.1111111   0.0999876), wk =   0.0141093
        k(    7) = (   0.0000000   0.1111111   0.1999753), wk =   0.0141093
        k(    8) = (   0.0000000   0.1111111   0.2999629), wk =   0.0141093
        k(    9) = (   0.0000000   0.2222222   0.0000000), wk =   0.0070547
        k(   10) = (   0.0000000   0.2222222   0.0999876), wk =   0.0141093
        k(   11) = (   0.0000000   0.2222222   0.1999753), wk =   0.0141093
        k(   12) = (   0.0000000   0.2222222   0.2999629), wk =   0.0141093
        k(   13) = (   0.0000000   0.3333333   0.0000000), wk =   0.0070547
        k(   14) = (   0.0000000   0.3333333   0.0999876), wk =   0.0141093
        k(   15) = (   0.0000000   0.3333333   0.1999753), wk =   0.0141093
        k(   16) = (   0.0000000   0.3333333   0.2999629), wk =   0.0141093
        k(   17) = (   0.0000000   0.4444444   0.0000000), wk =   0.0070547
        k(   18) = (   0.0000000   0.4444444   0.0999876), wk =   0.0141093
        k(   19) = (   0.0000000   0.4444444   0.1999753), wk =   0.0141093
        k(   20) = (   0.0000000   0.4444444   0.2999629), wk =   0.0141093
        k(   21) = (   0.1111111   0.1111111   0.0000000), wk =   0.0070547
        k(   22) = (   0.1111111   0.1111111   0.0999876), wk =   0.0141093
        k(   23) = (   0.1111111   0.1111111   0.1999753), wk =   0.0141093
        k(   24) = (   0.1111111   0.1111111   0.2999629), wk =   0.0141093
        k(   25) = (   0.1111111   0.2222222   0.0000000), wk =   0.0141093
        k(   26) = (   0.1111111   0.2222222   0.0999876), wk =   0.0282187
        k(   27) = (   0.1111111   0.2222222   0.1999753), wk =   0.0282187
        k(   28) = (   0.1111111   0.2222222   0.2999629), wk =   0.0282187
        k(   29) = (   0.1111111   0.3333333   0.0000000), wk =   0.0141093
        k(   30) = (   0.1111111   0.3333333   0.0999876), wk =   0.0282187
        k(   31) = (   0.1111111   0.3333333   0.1999753), wk =   0.0282187
        k(   32) = (   0.1111111   0.3333333   0.2999629), wk =   0.0282187
        k(   33) = (   0.1111111   0.4444444   0.0000000), wk =   0.0141093
        k(   34) = (   0.1111111   0.4444444   0.0999876), wk =   0.0282187
        k(   35) = (   0.1111111   0.4444444   0.1999753), wk =   0.0282187
        k(   36) = (   0.1111111   0.4444444   0.2999629), wk =   0.0282187
        k(   37) = (   0.2222222   0.2222222   0.0000000), wk =   0.0070547
        k(   38) = (   0.2222222   0.2222222   0.0999876), wk =   0.0141093
        k(   39) = (   0.2222222   0.2222222   0.1999753), wk =   0.0141093
        k(   40) = (   0.2222222   0.2222222   0.2999629), wk =   0.0141093
        k(   41) = (   0.2222222   0.3333333   0.0000000), wk =   0.0141093
        k(   42) = (   0.2222222   0.3333333   0.0999876), wk =   0.0282187
        k(   43) = (   0.2222222   0.3333333   0.1999753), wk =   0.0282187
        k(   44) = (   0.2222222   0.3333333   0.2999629), wk =   0.0282187
        k(   45) = (   0.2222222   0.4444444   0.0000000), wk =   0.0141093
        k(   46) = (   0.2222222   0.4444444   0.0999876), wk =   0.0282187
        k(   47) = (   0.2222222   0.4444444   0.1999753), wk =   0.0282187
        k(   48) = (   0.2222222   0.4444444   0.2999629), wk =   0.0282187
        k(   49) = (   0.3333333   0.3333333   0.0000000), wk =   0.0070547
        k(   50) = (   0.3333333   0.3333333   0.0999876), wk =   0.0141093
        k(   51) = (   0.3333333   0.3333333   0.1999753), wk =   0.0141093
        k(   52) = (   0.3333333   0.3333333   0.2999629), wk =   0.0141093
        k(   53) = (   0.3333333   0.4444444   0.0000000), wk =   0.0141093
        k(   54) = (   0.3333333   0.4444444   0.0999876), wk =   0.0282187
        k(   55) = (   0.3333333   0.4444444   0.1999753), wk =   0.0282187
        k(   56) = (   0.3333333   0.4444444   0.2999629), wk =   0.0282187
        k(   57) = (   0.4444444   0.4444444   0.0000000), wk =   0.0070547
        k(   58) = (   0.4444444   0.4444444   0.0999876), wk =   0.0141093
        k(   59) = (   0.4444444   0.4444444   0.1999753), wk =   0.0141093
        k(   60) = (   0.4444444   0.4444444   0.2999629), wk =   0.0141093

                       cryst. coord.
        k(    1) = (   0.0000000   0.0000000   0.0000000), wk =   0.0017637
        k(    2) = (   0.0000000   0.0000000   0.1428571), wk =   0.0035273
        k(    3) = (   0.0000000   0.0000000   0.2857143), wk =   0.0035273
        k(    4) = (   0.0000000   0.0000000   0.4285714), wk =   0.0035273
        k(    5) = (   0.0000000   0.1111111   0.0000000), wk =   0.0070547
        k(    6) = (   0.0000000   0.1111111   0.1428571), wk =   0.0141093
        k(    7) = (   0.0000000   0.1111111   0.2857143), wk =   0.0141093
        k(    8) = (   0.0000000   0.1111111   0.4285714), wk =   0.0141093
        k(    9) = (   0.0000000   0.2222222   0.0000000), wk =   0.0070547
        k(   10) = (   0.0000000   0.2222222   0.1428571), wk =   0.0141093
        k(   11) = (   0.0000000   0.2222222   0.2857143), wk =   0.0141093
        k(   12) = (   0.0000000   0.2222222   0.4285714), wk =   0.0141093
        k(   13) = (   0.0000000   0.3333333   0.0000000), wk =   0.0070547
        k(   14) = (   0.0000000   0.3333333   0.1428571), wk =   0.0141093
        k(   15) = (   0.0000000   0.3333333   0.2857143), wk =   0.0141093
        k(   16) = (   0.0000000   0.3333333   0.4285714), wk =   0.0141093
        k(   17) = (   0.0000000   0.4444444   0.0000000), wk =   0.0070547
        k(   18) = (   0.0000000   0.4444444   0.1428571), wk =   0.0141093
        k(   19) = (   0.0000000   0.4444444   0.2857143), wk =   0.0141093
        k(   20) = (   0.0000000   0.4444444   0.4285714), wk =   0.0141093
        k(   21) = (   0.1111111   0.1111111   0.0000000), wk =   0.0070547
        k(   22) = (   0.1111111   0.1111111   0.1428571), wk =   0.0141093
        k(   23) = (   0.1111111   0.1111111   0.2857143), wk =   0.0141093
        k(   24) = (   0.1111111   0.1111111   0.4285714), wk =   0.0141093
        k(   25) = (   0.1111111   0.2222222   0.0000000), wk =   0.0141093
        k(   26) = (   0.1111111   0.2222222   0.1428571), wk =   0.0282187
        k(   27) = (   0.1111111   0.2222222   0.2857143), wk =   0.0282187
        k(   28) = (   0.1111111   0.2222222   0.4285714), wk =   0.0282187
        k(   29) = (   0.1111111   0.3333333   0.0000000), wk =   0.0141093
        k(   30) = (   0.1111111   0.3333333   0.1428571), wk =   0.0282187
        k(   31) = (   0.1111111   0.3333333   0.2857143), wk =   0.0282187
        k(   32) = (   0.1111111   0.3333333   0.4285714), wk =   0.0282187
        k(   33) = (   0.1111111   0.4444444   0.0000000), wk =   0.0141093
        k(   34) = (   0.1111111   0.4444444   0.1428571), wk =   0.0282187
        k(   35) = (   0.1111111   0.4444444   0.2857143), wk =   0.0282187
        k(   36) = (   0.1111111   0.4444444   0.4285714), wk =   0.0282187
        k(   37) = (   0.2222222   0.2222222   0.0000000), wk =   0.0070547
        k(   38) = (   0.2222222   0.2222222   0.1428571), wk =   0.0141093
        k(   39) = (   0.2222222   0.2222222   0.2857143), wk =   0.0141093
        k(   40) = (   0.2222222   0.2222222   0.4285714), wk =   0.0141093
        k(   41) = (   0.2222222   0.3333333   0.0000000), wk =   0.0141093
        k(   42) = (   0.2222222   0.3333333   0.1428571), wk =   0.0282187
        k(   43) = (   0.2222222   0.3333333   0.2857143), wk =   0.0282187
        k(   44) = (   0.2222222   0.3333333   0.4285714), wk =   0.0282187
        k(   45) = (   0.2222222   0.4444444   0.0000000), wk =   0.0141093
        k(   46) = (   0.2222222   0.4444444   0.1428571), wk =   0.0282187
        k(   47) = (   0.2222222   0.4444444   0.2857143), wk =   0.0282187
        k(   48) = (   0.2222222   0.4444444   0.4285714), wk =   0.0282187
        k(   49) = (   0.3333333   0.3333333   0.0000000), wk =   0.0070547
        k(   50) = (   0.3333333   0.3333333   0.1428571), wk =   0.0141093
        k(   51) = (   0.3333333   0.3333333   0.2857143), wk =   0.0141093
        k(   52) = (   0.3333333   0.3333333   0.4285714), wk =   0.0141093
        k(   53) = (   0.3333333   0.4444444   0.0000000), wk =   0.0141093
        k(   54) = (   0.3333333   0.4444444   0.1428571), wk =   0.0282187
        k(   55) = (   0.3333333   0.4444444   0.2857143), wk =   0.0282187
        k(   56) = (   0.3333333   0.4444444   0.4285714), wk =   0.0282187
        k(   57) = (   0.4444444   0.4444444   0.0000000), wk =   0.0070547
        k(   58) = (   0.4444444   0.4444444   0.1428571), wk =   0.0141093
        k(   59) = (   0.4444444   0.4444444   0.2857143), wk =   0.0141093
        k(   60) = (   0.4444444   0.4444444   0.4285714), wk =   0.0141093

     Dense  grid:    55993 G-vectors     FFT dimensions: (  45,  45,  64)

     Smooth grid:    10451 G-vectors     FFT dimensions: (  25,  25,  36)

     Dynamical RAM for                 wfc:       0.18 MB

     Dynamical RAM for     wfc (w. buffer):      10.76 MB

     Dynamical RAM for           str. fact:       0.08 MB

     Dynamical RAM for           local pot:       0.00 MB

     Dynamical RAM for          nlocal pot:       0.06 MB

     Dynamical RAM for                qrad:      11.75 MB

     Dynamical RAM for          rho,v,vnew:       1.02 MB

     Dynamical RAM for           G-vectors:       0.15 MB

     Dynamical RAM for          h,s,v(r/c):       1.76 MB

     Dynamical RAM for          <psi|beta>:       0.20 MB

     Dynamical RAM for                 psi:       0.35 MB

     Dynamical RAM for                hpsi:       0.35 MB

     Dynamical RAM for                spsi:       0.35 MB

     Dynamical RAM for      wfcinit/wfcrot:       0.49 MB

     Dynamical RAM for           addusdens:      23.84 MB

     Estimated static dynamical RAM per process >      24.31 MB

     Estimated max dynamical RAM per process >      48.15 MB

     Estimated total dynamical RAM >       1.03 GB

     Check: negative core charge=   -0.000008
     Generating pointlists ...
     new r_m :   0.4125 (alat units)  1.9539 (a.u.) for type    1
     new r_m :   0.4125 (alat units)  1.9539 (a.u.) for type    2
     Message from routine read_rhog:
     some spin components not found
 
 -----------
Spin angles Theta, Phi (degree) =   0.0000  0.0000
 -----------

     The potential is recalculated from file :
     ./work/pwscf.save/charge-density

     Starting wfcs are   44 randomized atomic wfcs +   54 random wfcs

     Band Structure Calculation
     Davidson diagonalization with overlap

     Computing kpt #:     1  of    60
     total cpu time spent up to now is        1.5 secs

     Computing kpt #:     2  of    60
     total cpu time spent up to now is        2.2 secs

     Computing kpt #:     3  of    60
     total cpu time spent up to now is        3.1 secs

     Computing kpt #:     4  of    60
     total cpu time spent up to now is        4.0 secs

     Computing kpt #:     5  of    60
     total cpu time spent up to now is        4.6 secs

     Computing kpt #:     6  of    60
     total cpu time spent up to now is        5.4 secs

     Computing kpt #:     7  of    60
     total cpu time spent up to now is        6.2 secs

     Computing kpt #:     8  of    60
     total cpu time spent up to now is        7.1 secs

     Computing kpt #:     9  of    60
     total cpu time spent up to now is        7.9 secs

     Computing kpt #:    10  of    60
     total cpu time spent up to now is        8.7 secs

     Computing kpt #:    11  of    60
     total cpu time spent up to now is        9.4 secs

     Computing kpt #:    12  of    60
     total cpu time spent up to now is       10.3 secs

     Computing kpt #:    13  of    60
     total cpu time spent up to now is       11.1 secs

     Computing kpt #:    14  of    60
     total cpu time spent up to now is       11.9 secs

     Computing kpt #:    15  of    60
     total cpu time spent up to now is       12.7 secs

     Computing kpt #:    16  of    60
     total cpu time spent up to now is       13.4 secs

     Computing kpt #:    17  of    60
     total cpu time spent up to now is       14.2 secs

     Computing kpt #:    18  of    60
     total cpu time spent up to now is       15.8 secs

     Computing kpt #:    19  of    60
     total cpu time spent up to now is       16.6 secs

     Computing kpt #:    20  of    60
     total cpu time spent up to now is       17.4 secs

     Computing kpt #:    21  of    60
     total cpu time spent up to now is       18.1 secs

     Computing kpt #:    22  of    60
     total cpu time spent up to now is       18.9 secs

     Computing kpt #:    23  of    60
     total cpu time spent up to now is       19.8 secs

     Computing kpt #:    24  of    60
     total cpu time spent up to now is       20.6 secs

     Computing kpt #:    25  of    60
     total cpu time spent up to now is       21.4 secs

     Computing kpt #:    26  of    60
     total cpu time spent up to now is       22.2 secs

     Computing kpt #:    27  of    60
     total cpu time spent up to now is       23.0 secs

     Computing kpt #:    28  of    60
     total cpu time spent up to now is       23.8 secs

     Computing kpt #:    29  of    60
     total cpu time spent up to now is       24.7 secs

     Computing kpt #:    30  of    60
     total cpu time spent up to now is       25.6 secs

     Computing kpt #:    31  of    60
     total cpu time spent up to now is       26.3 secs

     Computing kpt #:    32  of    60
     total cpu time spent up to now is       27.1 secs

     Computing kpt #:    33  of    60
     total cpu time spent up to now is       27.8 secs

     Computing kpt #:    34  of    60
     total cpu time spent up to now is       28.6 secs

     Computing kpt #:    35  of    60
     total cpu time spent up to now is       29.5 secs

     Computing kpt #:    36  of    60
     total cpu time spent up to now is       30.3 secs

     Computing kpt #:    37  of    60
     total cpu time spent up to now is       31.2 secs

     Computing kpt #:    38  of    60
     total cpu time spent up to now is       32.0 secs

     Computing kpt #:    39  of    60
     total cpu time spent up to now is       32.9 secs

     Computing kpt #:    40  of    60
     total cpu time spent up to now is       33.8 secs

     Computing kpt #:    41  of    60
     total cpu time spent up to now is       34.6 secs

     Computing kpt #:    42  of    60
     total cpu time spent up to now is       35.4 secs

     Computing kpt #:    43  of    60
     total cpu time spent up to now is       36.3 secs

     Computing kpt #:    44  of    60
     total cpu time spent up to now is       37.3 secs

     Computing kpt #:    45  of    60
     total cpu time spent up to now is       38.1 secs

     Computing kpt #:    46  of    60
     total cpu time spent up to now is       39.1 secs

     Computing kpt #:    47  of    60
     total cpu time spent up to now is       40.0 secs

     Computing kpt #:    48  of    60
     total cpu time spent up to now is       40.9 secs

     Computing kpt #:    49  of    60
     total cpu time spent up to now is       41.8 secs

     Computing kpt #:    50  of    60
     total cpu time spent up to now is       42.8 secs

     Computing kpt #:    51  of    60
     total cpu time spent up to now is       43.7 secs

     Computing kpt #:    52  of    60
     total cpu time spent up to now is       44.6 secs

     Computing kpt #:    53  of    60
     total cpu time spent up to now is       45.5 secs

     Computing kpt #:    54  of    60
     total cpu time spent up to now is       46.3 secs

     Computing kpt #:    55  of    60
     total cpu time spent up to now is       47.3 secs

     Computing kpt #:    56  of    60
     total cpu time spent up to now is       48.4 secs

     Computing kpt #:    57  of    60
     total cpu time spent up to now is       49.4 secs

     Computing kpt #:    58  of    60
     total cpu time spent up to now is       50.2 secs

     Computing kpt #:    59  of    60
     total cpu time spent up to now is       51.2 secs

     Computing kpt #:    60  of    60
     total cpu time spent up to now is       52.2 secs

     ethr =  3.85E-11,  avg # of iterations = 33.4

     total cpu time spent up to now is       52.2 secs

     End of band structure calculation

------
 eband, Ef (eV) =   -121.427118263099        15.9687418517314     
------


          k = 0.0000 0.0000 0.0000 (  1297 PWs)   bands (ev):

   -72.5882 -69.3741 -39.1136 -38.9359 -37.9324 -35.6704 -35.3714 -34.8171
     7.0046   7.0803  10.8339  11.5385  11.9261  12.6339  13.3675  13.4026
    13.4415  14.3449  14.5195  14.6269  14.6869  14.9652  15.2753  15.4754
    15.5093  15.6027  16.2851  17.6203  17.6980  18.0974  18.1285  18.2176
    25.0165  26.0190  30.5239  30.7022  30.7167  30.8931  35.4373  35.8635
    38.5899  38.8577  39.0809  39.5496  42.7417  42.8300  43.0013  43.0477
    43.1001  43.1974  45.4125  45.4531  45.5714  45.8362  45.8837  45.9992
    48.0770  48.4642  54.7679  55.2181  55.6991  55.8660  56.1410  56.3969
    56.5279  57.1019  57.1285  57.6365  59.7781  59.9764  64.2569  64.3431
    65.6358  65.6457  65.6551  65.6658  66.7939  66.8781  67.0175  67.0982
    70.0169  70.8956  71.9600  71.9618  72.7136  72.7404  74.8033  74.9081
    75.3035  75.5018  75.6707  76.0035  76.2093  76.2581  79.5025  79.5383
    80.0535  80.0910

     occupation numbers 
     1.0000   1.0000   1.0000   1.0000   1.0000   1.0000   1.0000   1.0000
     1.0000   1.0000   1.0000   1.0000   1.0000   1.0000   1.0000   1.0000
     1.0000   1.0000   1.0000   1.0000   1.0000   1.0000   1.0000   1.0000
     1.0000   1.0005  -0.0024  -0.0000  -0.0000  -0.0000  -0.0000  -0.0000
    -0.0000  -0.0000  -0.0000  -0.0000  -0.0000  -0.0000  -0.0000  -0.0000
    -0.0000  -0.0000  -0.0000  -0.0000  -0.0000  -0.0000  -0.0000  -0.0000
    -0.0000  -0.0000  -0.0000  -0.0000  -0.0000  -0.0000  -0.0000  -0.0000
    -0.0000  -0.0000  -0.0000  -0.0000  -0.0000  -0.0000  -0.0000  -0.0000
    -0.0000  -0.0000  -0.0000  -0.0000  -0.0000  -0.0000  -0.0000  -0.0000
    -0.0000  -0.0000  -0.0000  -0.0000  -0.0000  -0.0000  -0.0000  -0.0000
    -0.0000  -0.0000  -0.0000  -0.0000  -0.0000  -0.0000  -0.0000  -0.0000
    -0.0000  -0.0000  -0.0000  -0.0000  -0.0000  -0.0000  -0.0000  -0.0000
    -0.0000  -0.0000

          k = 0.0000 0.0000 0.1000 (  1305 PWs)   bands (ev):

   -72.5882 -69.3741 -39.1140 -38.9364 -37.9328 -35.6708 -35.3722 -34.8174
     7.2644   7.3404  10.8681  11.6213  11.8958  12.7173  13.3044  13.4467
    13.5216  14.2670  14.5558  14.6703  14.7442  14.8604  15.2388  15.3346
    15.4107  15.5710  16.0525  16.9712  17.4465  17.4854  17.5587  18.0838
    26.5890  27.3919  30.9267  31.1038  31.1436  31.3189  35.4942  35.8720
    38.3097  38.4237  39.1672  39.6253  41.0520  41.1904  41.3791  41.5201
    41.6119  41.7144  46.5912  46.9089  47.2254  47.2629  47.4828  47.5170
    49.2885  49.4002  51.5202  51.7801  56.1572  56.4326  56.7091  56.9933
    57.1849  57.6554  59.5566  59.8333  60.4186  60.8812  62.3804  62.4080
    62.4149  62.4399  63.7156  63.8500  67.1708  67.2104  70.1023  70.1277
    70.3243  70.3529  70.7366  71.5656  72.2288  72.4552  72.8576  73.1083
    73.1187  73.1677  76.3300  76.8789  80.1193  80.1753  83.2638  83.3142
    83.8309  83.8857

     occupation numbers 
     1.0000   1.0000   1.0000   1.0000   1.0000   1.0000   1.0000   1.0000
     1.0000   1.0000   1.0000   1.0000   1.0000   1.0000   1.0000   1.0000
     1.0000   1.0000   1.0000   1.0000   1.0000   1.0000   1.0000   1.0000
     1.0000   1.0001   0.0730  -0.0000  -0.0000  -0.0000  -0.0000  -0.0000
    -0.0000  -0.0000  -0.0000  -0.0000  -0.0000  -0.0000  -0.0000  -0.0000
    -0.0000  -0.0000  -0.0000  -0.0000  -0.0000  -0.0000  -0.0000  -0.0000
    -0.0000  -0.0000  -0.0000  -0.0000  -0.0000  -0.0000  -0.0000  -0.0000
    -0.0000  -0.0000  -0.0000  -0.0000  -0.0000  -0.0000  -0.0000  -0.0000
    -0.0000  -0.0000  -0.0000  -0.0000  -0.0000  -0.0000  -0.0000  -0.0000
    -0.0000  -0.0000  -0.0000  -0.0000  -0.0000  -0.0000  -0.0000  -0.0000
    -0.0000  -0.0000  -0.0000  -0.0000  -0.0000  -0.0000  -0.0000  -0.0000
    -0.0000  -0.0000  -0.0000  -0.0000  -0.0000  -0.0000  -0.0000  -0.0000
    -0.0000  -0.0000

          k = 0.0000 0.0000 0.2000 (  1317 PWs)   bands (ev):

   -72.5882 -69.3740 -39.1143 -38.9386 -37.9330 -35.6711 -35.3751 -34.8176
     8.0161   8.0956  10.8386  11.6012  11.8554  12.9421  13.0352  13.6779
    13.7554  14.0369  14.5871  14.6559  14.8021  14.8917  14.9553  15.0572
    15.0813  15.1411  15.2334  15.5834  16.5769  17.1619  17.2324  18.0528
    29.8156  30.3658  32.0725  32.2450  32.3409  32.5129  35.6642  35.8950
    37.6105  37.7960  38.4710  38.6226  38.8672  39.0138  39.2043  39.3012
    39.7851  40.1962  45.9189  46.6301  49.1339  49.2960  49.8614  49.8770
    49.9765  49.9911  53.3753  53.5146  57.3449  57.7042  57.7957  58.0663
    58.3094  58.5180  58.8745  58.9002  58.9753  59.0645  59.0664  59.5293
    61.7644  61.7941  61.9280  61.9589  64.8700  65.3757  67.6292  67.8078
    68.3341  68.5138  72.7133  73.1938  73.3965  73.4395  74.6707  74.7610
    74.9160  75.0092  78.4172  78.8566  83.6832  83.8115  83.8697  84.3900
    87.0963  87.1245

     occupation numbers 
     1.0000   1.0000   1.0000   1.0000   1.0000   1.0000   1.0000   1.0000
     1.0000   1.0000   1.0000   1.0000   1.0000   1.0000   1.0000   1.0000
     1.0000   1.0000   1.0000   1.0000   1.0000   1.0000   1.0000   1.0000
     1.0000   1.0000   1.0000   1.0002  -0.0000  -0.0000  -0.0000  -0.0000
    -0.0000  -0.0000  -0.0000  -0.0000  -0.0000  -0.0000  -0.0000  -0.0000
    -0.0000  -0.0000  -0.0000  -0.0000  -0.0000  -0.0000  -0.0000  -0.0000
    -0.0000  -0.0000  -0.0000  -0.0000  -0.0000  -0.0000  -0.0000  -0.0000
    -0.0000  -0.0000  -0.0000  -0.0000  -0.0000  -0.0000  -0.0000  -0.0000
    -0.0000  -0.0000  -0.0000  -0.0000  -0.0000  -0.0000  -0.0000  -0.0000
    -0.0000  -0.0000  -0.0000  -0.0000  -0.0000  -0.0000  -0.0000  -0.0000
    -0.0000  -0.0000  -0.0000  -0.0000  -0.0000  -0.0000  -0.0000  -0.0000
    -0.0000  -0.0000  -0.0000  -0.0000  -0.0000  -0.0000  -0.0000  -0.0000
    -0.0000  -0.0000

          k = 0.0000 0.0000 0.3000 (  1310 PWs)   bands (ev):

   -72.5881 -69.3739 -39.1143 -38.9396 -37.9330 -35.6712 -35.3767 -34.8176
     9.1452   9.2432  10.2963  10.6545  12.1862  12.6761  13.1974  13.7390
    13.9611  14.0360  14.1141  14.2970  14.4587  14.5954  14.6564  14.7943
    14.9602  14.9613  15.0857  15.6010  16.2378  16.8801  16.9455  18.0276
    33.4358  33.6812  33.8483  33.9715  34.1053  34.2695  35.9023  35.9188
    36.0108  36.1759  36.4333  36.5949  36.8104  36.9560  36.9732  37.4553
    40.4977  41.0571  42.4965  43.1621  52.5817  52.5881  52.6262  52.6365
    52.6467  52.6807  55.5835  55.5966  55.6640  55.6762  56.6987  56.7409
    56.9281  56.9349  57.5468  57.7536  58.6298  59.2958  59.6834  59.7127
    60.3424  60.5964  61.0480  61.3030  63.8524  64.0750  64.5801  64.8044
    68.2522  68.6923  71.5572  71.8493  75.5996  76.2043  78.9914  79.0663
    79.2888  79.3649  79.5542  80.2021  81.6391  81.9140  83.4156  83.4701
    83.7685  83.8254

     occupation numbers 
     1.0000   1.0000   1.0000   1.0000   1.0000   1.0000   1.0000   1.0000
     1.0000   1.0000   1.0000   1.0000   1.0000   1.0000   1.0000   1.0000
     1.0000   1.0000   1.0000   1.0000   1.0000   1.0000   1.0000   1.0000
     1.0000   1.0000   1.0000   1.0004  -0.0086  -0.0000  -0.0000  -0.0000
    -0.0000  -0.0000  -0.0000  -0.0000  -0.0000  -0.0000  -0.0000  -0.0000
    -0.0000  -0.0000  -0.0000  -0.0000  -0.0000  -0.0000  -0.0000  -0.0000
    -0.0000  -0.0000  -0.0000  -0.0000  -0.0000  -0.0000  -0.0000  -0.0000
    -0.0000  -0.0000  -0.0000  -0.0000  -0.0000  -0.0000  -0.0000  -0.0000
    -0.0000  -0.0000  -0.0000  -0.0000  -0.0000  -0.0000  -0.0000  -0.0000
    -0.0000  -0.0000  -0.0000  -0.0000  -0.0000  -0.0000  -0.0000  -0.0000
    -0.0000  -0.0000  -0.0000  -0.0000  -0.0000  -0.0000  -0.0000  -0.0000
    -0.0000  -0.0000  -0.0000  -0.0000  -0.0000  -0.0000  -0.0000  -0.0000
    -0.0000  -0.0000

          k = 0.0000 0.1111 0.0000 (  1306 PWs)   bands (ev):

   -72.5852 -69.3707 -39.1255 -38.9339 -37.9454 -35.6840 -35.3689 -34.8317
     7.3245   7.4016  11.0050  11.6581  12.1088  12.7403  13.2927  13.4826
    13.4904  14.3384  14.4475  14.5306  14.7114  14.8710  15.0645  15.1343
    15.4284  15.4971  16.3114  16.5266  17.6182  17.9246  19.0903  19.6824
    25.0754  26.0446  28.1495  28.4695  31.1009  31.3238  36.4833  36.8457
    37.8681  37.8954  39.9097  40.1494  41.0734  41.4832  41.5762  41.7879
    43.3749  43.5862  45.5627  45.9700  46.0117  46.1190  48.0795  48.2758
    50.7843  50.8360  51.9428  52.4883  53.8399  54.3604  55.5676  56.1403
    57.5966  57.7696  58.8791  59.3693  60.1894  60.2266  61.3348  61.8325
    64.3643  64.5716  64.7879  64.8797  68.5375  68.5503  69.6679  69.6856
    71.4423  71.5700  71.6900  71.7918  71.9445  72.0990  75.5385  75.5585
    76.7762  76.8946  77.4096  77.6632  78.8245  78.9411  79.1373  79.3517
    79.6882  80.2418

     occupation numbers 
     1.0000   1.0000   1.0000   1.0000   1.0000   1.0000   1.0000   1.0000
     1.0000   1.0000   1.0000   1.0000   1.0000   1.0000   1.0000   1.0000
     1.0000   1.0000   1.0000   1.0000   1.0000   1.0000   1.0000   1.0000
     1.0000   1.0000  -0.0011  -0.0000  -0.0000  -0.0000  -0.0000  -0.0000
    -0.0000  -0.0000  -0.0000  -0.0000  -0.0000  -0.0000  -0.0000  -0.0000
    -0.0000  -0.0000  -0.0000  -0.0000  -0.0000  -0.0000  -0.0000  -0.0000
    -0.0000  -0.0000  -0.0000  -0.0000  -0.0000  -0.0000  -0.0000  -0.0000
    -0.0000  -0.0000  -0.0000  -0.0000  -0.0000  -0.0000  -0.0000  -0.0000
    -0.0000  -0.0000  -0.0000  -0.0000  -0.0000  -0.0000  -0.0000  -0.0000
    -0.0000  -0.0000  -0.0000  -0.0000  -0.0000  -0.0000  -0.0000  -0.0000
    -0.0000  -0.0000  -0.0000  -0.0000  -0.0000  -0.0000  -0.0000  -0.0000
    -0.0000  -0.0000  -0.0000  -0.0000  -0.0000  -0.0000  -0.0000  -0.0000
    -0.0000  -0.0000

          k = 0.0000 0.1111 0.1000 (  1309 PWs)   bands (ev):

   -72.5852 -69.3707 -39.1257 -38.9345 -37.9456 -35.6842 -35.3698 -34.8318
     7.5779   7.6561  11.0460  11.7355  12.0877  12.8175  13.2498  13.4934
    13.5597  14.2830  14.4770  14.5263  14.6574  14.7466  15.0130  15.0299
    15.4063  15.4805  15.9025  16.5072  17.4763  17.9163  17.9601  18.8972
    26.7100  27.4758  28.5070  28.8513  31.4860  31.7277  36.3454  36.4972
    36.6436  37.0568  39.8383  39.9097  41.1978  41.4969  41.5910  41.8441
    42.3535  42.6815  46.1137  46.2387  47.2618  47.2769  47.3836  47.5029
    50.9618  51.5893  52.5426  53.0308  53.0509  53.1368  56.3608  56.7565
    56.8297  57.0423  58.5348  58.6225  61.5371  61.6991  62.0456  62.2098
    64.3438  64.5568  64.9992  65.1268  66.7319  66.9090  67.7611  68.2082
    69.4295  69.5222  71.7684  72.2793  72.9419  73.4079  75.5857  76.1564
    76.2488  76.2756  77.2536  77.7886  78.5931  78.8487  83.5168  84.1020
    84.3979  84.7310

     occupation numbers 
     1.0000   1.0000   1.0000   1.0000   1.0000   1.0000   1.0000   1.0000
     1.0000   1.0000   1.0000   1.0000   1.0000   1.0000   1.0000   1.0000
     1.0000   1.0000   1.0000   1.0000   1.0000   1.0000   1.0000   1.0000
     1.0000   1.0000   0.8627  -0.0000  -0.0000  -0.0000  -0.0000  -0.0000
    -0.0000  -0.0000  -0.0000  -0.0000  -0.0000  -0.0000  -0.0000  -0.0000
    -0.0000  -0.0000  -0.0000  -0.0000  -0.0000  -0.0000  -0.0000  -0.0000
    -0.0000  -0.0000  -0.0000  -0.0000  -0.0000  -0.0000  -0.0000  -0.0000
    -0.0000  -0.0000  -0.0000  -0.0000  -0.0000  -0.0000  -0.0000  -0.0000
    -0.0000  -0.0000  -0.0000  -0.0000  -0.0000  -0.0000  -0.0000  -0.0000
    -0.0000  -0.0000  -0.0000  -0.0000  -0.0000  -0.0000  -0.0000  -0.0000
    -0.0000  -0.0000  -0.0000  -0.0000  -0.0000  -0.0000  -0.0000  -0.0000
    -0.0000  -0.0000  -0.0000  -0.0000  -0.0000  -0.0000  -0.0000  -0.0000
    -0.0000  -0.0000

          k = 0.0000 0.1111 0.2000 (  1306 PWs)   bands (ev):

   -72.5851 -69.3706 -39.1257 -38.9362 -37.9455 -35.6842 -35.3721 -34.8318
     8.3096   8.3945  11.0361  11.8149  11.9556  13.0215  13.0362  13.6229
    13.7183  14.0432  14.1817  14.3834  14.6240  14.7341  14.8472  14.9455
    15.1093  15.2962  15.4631  16.1829  16.4166  17.2186  17.7864  17.9579
    29.2416  29.6391  30.2105  30.7178  32.5888  32.8715  34.3500  34.6929
    36.8711  37.1474  38.6178  38.6841  38.9037  39.3097  41.5860  41.8390
    42.3942  42.6721  45.2710  45.6870  47.7839  48.2651  49.3900  49.4954
    49.8515  49.9120  54.2050  54.6439  55.2606  55.6021  55.6115  55.6403
    56.3541  56.4089  58.0173  58.4885  60.7233  60.8335  62.1875  62.4400
    62.5127  62.9195  65.3807  65.4504  66.1829  66.6440  67.7638  67.8785
    68.2478  68.5043  70.2777  70.8794  70.9378  71.2301  77.4574  77.7019
    78.3756  78.7741  78.8573  79.2904  81.3166  81.8407  84.2071  84.5758
    85.2188  85.3595

     occupation numbers 
     1.0000   1.0000   1.0000   1.0000   1.0000   1.0000   1.0000   1.0000
     1.0000   1.0000   1.0000   1.0000   1.0000   1.0000   1.0000   1.0000
     1.0000   1.0000   1.0000   1.0000   1.0000   1.0000   1.0000   1.0000
     1.0000   1.0000   1.0000  -0.0243  -0.0000  -0.0000  -0.0000  -0.0000
    -0.0000  -0.0000  -0.0000  -0.0000  -0.0000  -0.0000  -0.0000  -0.0000
    -0.0000  -0.0000  -0.0000  -0.0000  -0.0000  -0.0000  -0.0000  -0.0000
    -0.0000  -0.0000  -0.0000  -0.0000  -0.0000  -0.0000  -0.0000  -0.0000
    -0.0000  -0.0000  -0.0000  -0.0000  -0.0000  -0.0000  -0.0000  -0.0000
    -0.0000  -0.0000  -0.0000  -0.0000  -0.0000  -0.0000  -0.0000  -0.0000
    -0.0000  -0.0000  -0.0000  -0.0000  -0.0000  -0.0000  -0.0000  -0.0000
    -0.0000  -0.0000  -0.0000  -0.0000  -0.0000  -0.0000  -0.0000  -0.0000
    -0.0000  -0.0000  -0.0000  -0.0000  -0.0000  -0.0000  -0.0000  -0.0000
    -0.0000  -0.0000

          k = 0.0000 0.1111 0.3000 (  1313 PWs)   bands (ev):

   -72.5850 -69.3705 -39.1260 -38.9374 -37.9458 -35.6846 -35.3739 -34.8320
     9.4039   9.5133  10.5193  10.8944  12.2697  12.7061  13.2628  13.4910
    13.5945  13.9714  14.1914  14.3133  14.4033  14.5383  14.8620  14.9484
    15.0319  15.0615  15.1203  15.4252  16.4361  17.0213  17.0851  17.9414
    30.6779  31.0195  32.4677  32.9406  33.8146  34.0947  34.2887  34.5731
    36.4583  36.8214  36.9076  36.9160  37.6483  37.9690  39.3182  39.6104
    42.5653  43.0651  44.1457  44.6996  49.3087  49.4087  51.2996  51.3783
    52.4590  52.5394  52.9739  52.9779  53.1866  53.3595  56.4965  56.6105
    56.9617  57.4774  59.6466  59.7489  59.8024  60.1317  60.5665  61.0321
    62.9302  62.9337  63.2999  63.8033  64.0393  64.5512  65.5987  66.2706
    69.4526  69.9342  72.1455  72.4799  72.9512  73.4931  76.8489  77.2545
    77.3879  77.5419  79.4349  79.6900  82.3346  82.7389  84.1950  84.5784
    86.4088  86.6959

     occupation numbers 
     1.0000   1.0000   1.0000   1.0000   1.0000   1.0000   1.0000   1.0000
     1.0000   1.0000   1.0000   1.0000   1.0000   1.0000   1.0000   1.0000
     1.0000   1.0000   1.0000   1.0000   1.0000   1.0000   1.0000   1.0000
     1.0000   1.0000   1.0000   1.0000  -0.0000  -0.0000  -0.0000  -0.0000
    -0.0000  -0.0000  -0.0000  -0.0000  -0.0000  -0.0000  -0.0000  -0.0000
    -0.0000  -0.0000  -0.0000  -0.0000  -0.0000  -0.0000  -0.0000  -0.0000
    -0.0000  -0.0000  -0.0000  -0.0000  -0.0000  -0.0000  -0.0000  -0.0000
    -0.0000  -0.0000  -0.0000  -0.0000  -0.0000  -0.0000  -0.0000  -0.0000
    -0.0000  -0.0000  -0.0000  -0.0000  -0.0000  -0.0000  -0.0000  -0.0000
    -0.0000  -0.0000  -0.0000  -0.0000  -0.0000  -0.0000  -0.0000  -0.0000
    -0.0000  -0.0000  -0.0000  -0.0000  -0.0000  -0.0000  -0.0000  -0.0000
    -0.0000  -0.0000  -0.0000  -0.0000  -0.0000  -0.0000  -0.0000  -0.0000
    -0.0000  -0.0000

          k = 0.0000 0.2222 0.0000 (  1324 PWs)   bands (ev):

   -72.5775 -69.3621 -39.1566 -38.9295 -37.9762 -35.7206 -35.3630 -34.8653
     8.2416   8.3289  11.4423  11.9681  12.5811  12.9912  13.0360  13.6111
    13.6785  13.9331  14.0887  14.2661  14.5838  14.7812  14.8761  15.1677
    15.2718  15.3199  15.5089  16.4834  17.5033  17.5185  20.9898  21.6888
    24.1052  24.7084  25.6756  26.4397  32.4724  32.7620  35.0184  35.3468
    36.0358  36.2826  37.0718  37.4305  42.0589  42.0911  44.3500  44.4041
    44.4300  44.6283  45.9672  45.9881  46.3060  46.3383  48.1821  48.8053
    51.7432  51.7690  52.7785  53.2909  54.4345  54.6282  55.5630  55.6275
    55.8197  55.8534  58.1247  58.7653  60.6486  61.2261  61.2543  61.4634
    61.6472  62.0358  66.5558  67.0554  68.2788  68.5787  68.9733  69.1543
    73.3232  73.7029  73.7603  73.7675  75.1352  75.3294  78.5604  78.8479
    79.6799  79.8238  80.2043  80.4646  80.5767  80.7009  80.7731  81.3419
    81.6281  82.2771

     occupation numbers 
     1.0000   1.0000   1.0000   1.0000   1.0000   1.0000   1.0000   1.0000
     1.0000   1.0000   1.0000   1.0000   1.0000   1.0000   1.0000   1.0000
     1.0000   1.0000   1.0000   1.0000   1.0000   1.0000   1.0000   1.0000
     1.0000   1.0000   1.0000  -0.0000  -0.0000  -0.0000  -0.0000  -0.0000
    -0.0000  -0.0000  -0.0000  -0.0000  -0.0000  -0.0000  -0.0000  -0.0000
    -0.0000  -0.0000  -0.0000  -0.0000  -0.0000  -0.0000  -0.0000  -0.0000
    -0.0000  -0.0000  -0.0000  -0.0000  -0.0000  -0.0000  -0.0000  -0.0000
    -0.0000  -0.0000  -0.0000  -0.0000  -0.0000  -0.0000  -0.0000  -0.0000
    -0.0000  -0.0000  -0.0000  -0.0000  -0.0000  -0.0000  -0.0000  -0.0000
    -0.0000  -0.0000  -0.0000  -0.0000  -0.0000  -0.0000  -0.0000  -0.0000
    -0.0000  -0.0000  -0.0000  -0.0000  -0.0000  -0.0000  -0.0000  -0.0000
    -0.0000  -0.0000  -0.0000  -0.0000  -0.0000  -0.0000  -0.0000  -0.0000
    -0.0000  -0.0000

          k = 0.0000 0.2222 0.1000 (  1307 PWs)   bands (ev):

   -72.5774 -69.3620 -39.1563 -38.9297 -37.9759 -35.7203 -35.3634 -34.8650
     8.4680   8.5622  11.4835  12.0272  12.5653  13.0356  13.0690  13.5801
    13.6577  13.7855  14.0616  14.3737  14.5306  14.6367  14.8451  15.1803
    15.2621  15.2917  15.3685  16.4639  17.3295  17.6778  19.4798  20.4440
    24.6626  25.2064  27.3709  28.0246  32.8142  32.8448  33.1117  33.2527
    37.1413  37.4453  38.4015  38.4837  40.9544  41.1538  42.5415  42.9170
    45.7459  45.8492  46.2001  46.4480  46.4670  46.6985  48.8325  48.9660
    50.0446  50.6191  52.3915  52.9290  53.4756  53.7212  54.5145  54.5935
    57.1761  57.7105  58.3489  58.4261  61.9472  62.0797  62.3114  62.5026
    63.5990  63.9585  64.3837  64.7535  66.7302  67.2387  69.6563  69.8618
    73.2684  73.4981  74.2370  74.5166  74.5357  74.9885  76.2087  76.2638
    79.1693  79.5119  79.9865  80.4214  81.0739  81.4389  81.6671  82.1105
    82.5938  83.0974

     occupation numbers 
     1.0000   1.0000   1.0000   1.0000   1.0000   1.0000   1.0000   1.0000
     1.0000   1.0000   1.0000   1.0000   1.0000   1.0000   1.0000   1.0000
     1.0000   1.0000   1.0000   1.0000   1.0000   1.0000   1.0000   1.0000
     1.0000   1.0000   1.0000  -0.0000  -0.0000  -0.0000  -0.0000  -0.0000
    -0.0000  -0.0000  -0.0000  -0.0000  -0.0000  -0.0000  -0.0000  -0.0000
    -0.0000  -0.0000  -0.0000  -0.0000  -0.0000  -0.0000  -0.0000  -0.0000
    -0.0000  -0.0000  -0.0000  -0.0000  -0.0000  -0.0000  -0.0000  -0.0000
    -0.0000  -0.0000  -0.0000  -0.0000  -0.0000  -0.0000  -0.0000  -0.0000
    -0.0000  -0.0000  -0.0000  -0.0000  -0.0000  -0.0000  -0.0000  -0.0000
    -0.0000  -0.0000  -0.0000  -0.0000  -0.0000  -0.0000  -0.0000  -0.0000
    -0.0000  -0.0000  -0.0000  -0.0000  -0.0000  -0.0000  -0.0000  -0.0000
    -0.0000  -0.0000  -0.0000  -0.0000  -0.0000  -0.0000  -0.0000  -0.0000
    -0.0000  -0.0000

          k = 0.0000 0.2222 0.2000 (  1304 PWs)   bands (ev):

   -72.5773 -69.3619 -39.1562 -38.9311 -37.9758 -35.7202 -35.3654 -34.8649
     9.1108   9.2341  11.4444  12.2349  12.2893  13.0263  13.2658  13.4377
    13.5462  13.6502  13.9942  14.2708  14.4782  14.6904  14.8338  14.8428
    15.1700  15.2077  15.3739  16.4787  17.2406  17.3583  17.7544  18.7202
    25.5923  26.1446  30.5312  30.7651  30.9962  31.2690  33.8103  34.1227
    37.4225  37.6665  38.7146  38.8020  39.9098  40.3429  42.0789  42.4745
    44.5971  44.8011  46.4772  46.8185  47.2226  47.4227  47.9415  48.0359
    51.3238  51.6494  51.7797  51.9467  52.0281  52.1619  53.3954  53.9068
    57.9603  58.3234  58.5185  58.8782  61.6938  61.7986  64.6881  65.0369
    65.2665  65.5247  65.7608  65.7958  67.4437  67.8272  68.2388  68.6677
    69.8943  70.2236  72.1334  72.1880  72.5715  73.1737  77.8025  78.2896
    78.7683  79.1945  80.6194  80.9036  81.0733  81.4212  81.8816  82.2046
    83.3182  83.6902

     occupation numbers 
     1.0000   1.0000   1.0000   1.0000   1.0000   1.0000   1.0000   1.0000
     1.0000   1.0000   1.0000   1.0000   1.0000   1.0000   1.0000   1.0000
     1.0000   1.0000   1.0000   1.0000   1.0000   1.0000   1.0000   1.0000
     1.0000   1.0000   1.0000  -0.0000  -0.0000  -0.0000  -0.0000  -0.0000
    -0.0000  -0.0000  -0.0000  -0.0000  -0.0000  -0.0000  -0.0000  -0.0000
    -0.0000  -0.0000  -0.0000  -0.0000  -0.0000  -0.0000  -0.0000  -0.0000
    -0.0000  -0.0000  -0.0000  -0.0000  -0.0000  -0.0000  -0.0000  -0.0000
    -0.0000  -0.0000  -0.0000  -0.0000  -0.0000  -0.0000  -0.0000  -0.0000
    -0.0000  -0.0000  -0.0000  -0.0000  -0.0000  -0.0000  -0.0000  -0.0000
    -0.0000  -0.0000  -0.0000  -0.0000  -0.0000  -0.0000  -0.0000  -0.0000
    -0.0000  -0.0000  -0.0000  -0.0000  -0.0000  -0.0000  -0.0000  -0.0000
    -0.0000  -0.0000  -0.0000  -0.0000  -0.0000  -0.0000  -0.0000  -0.0000
    -0.0000  -0.0000

          k = 0.0000 0.2222 0.3000 (  1297 PWs)   bands (ev):

   -72.5772 -69.3618 -39.1561 -38.9321 -37.9757 -35.7201 -35.3668 -34.8647
    10.0338  10.2330  10.9658  11.4542  12.5829  12.8979  13.2190  13.4026
    13.4987  13.7350  13.9545  14.0688  14.4221  14.8175  14.8803  14.9998
    15.0675  15.1530  15.2502  15.7565  16.7553  17.2575  17.4813  17.7479
    26.8736  27.3818  28.6208  29.2274  34.3917  34.6242  35.3679  35.6574
    37.1736  37.1788  37.5054  37.9860  38.2546  38.5817  40.4553  40.8388
    45.6123  45.8211  47.1562  47.4257  48.3090  48.3581  48.4759  48.6498
    48.9861  49.1459  49.9177  50.2940  52.0273  52.3188  54.6423  54.9195
    57.0940  57.5475  60.6240  61.0138  61.0760  61.4595  64.0458  64.3373
    65.1935  65.2332  67.4022  67.7536  68.4512  68.5082  68.5809  69.0560
    70.9243  71.2048  71.3030  71.8498  72.4761  72.9367  73.4417  73.9672
    75.7816  76.0620  77.8925  78.2286  83.6022  83.9200  85.8282  86.1308
    87.1628  87.5825

     occupation numbers 
     1.0000   1.0000   1.0000   1.0000   1.0000   1.0000   1.0000   1.0000
     1.0000   1.0000   1.0000   1.0000   1.0000   1.0000   1.0000   1.0000
     1.0000   1.0000   1.0000   1.0000   1.0000   1.0000   1.0000   1.0000
     1.0000   1.0000   1.0000   1.0249  -0.0000  -0.0000  -0.0000  -0.0000
    -0.0000  -0.0000  -0.0000  -0.0000  -0.0000  -0.0000  -0.0000  -0.0000
    -0.0000  -0.0000  -0.0000  -0.0000  -0.0000  -0.0000  -0.0000  -0.0000
    -0.0000  -0.0000  -0.0000  -0.0000  -0.0000  -0.0000  -0.0000  -0.0000
    -0.0000  -0.0000  -0.0000  -0.0000  -0.0000  -0.0000  -0.0000  -0.0000
    -0.0000  -0.0000  -0.0000  -0.0000  -0.0000  -0.0000  -0.0000  -0.0000
    -0.0000  -0.0000  -0.0000  -0.0000  -0.0000  -0.0000  -0.0000  -0.0000
    -0.0000  -0.0000  -0.0000  -0.0000  -0.0000  -0.0000  -0.0000  -0.0000
    -0.0000  -0.0000  -0.0000  -0.0000  -0.0000  -0.0000  -0.0000  -0.0000
    -0.0000  -0.0000

          k = 0.0000 0.3333 0.0000 (  1304 PWs)   bands (ev):

   -72.5686 -69.3521 -39.1936 -38.9239 -38.0076 -35.7657 -35.3555 -34.8976
     9.6064   9.7397  11.9820  12.2617  12.7117  13.1075  13.1814  13.2869
    13.4949  13.7067  13.9814  14.0435  14.4352  14.8268  14.9462  15.0563
    15.0596  15.1679  15.2006  16.9219  17.1021  17.3509  20.7878  21.6731
    23.2832  23.9780  26.2734  26.9268  31.7950  32.2850  32.6235  32.9971
    34.5471  34.8983  37.5900  37.8279  42.0719  42.1172  43.3240  43.6297
    43.6615  43.6765  46.6882  46.9885  47.6627  48.2294  51.7150  51.8319
    51.9685  51.9729  52.0095  52.1195  53.0147  53.3716  55.3001  55.3040
    56.9390  57.5790  58.2987  58.6913  59.4304  59.7092  62.2442  62.8661
    65.1419  65.3395  65.8179  66.0647  66.0964  66.3373  72.1152  72.6584
    73.2127  73.5212  75.3323  75.6593  77.0819  77.2988  79.5264  79.5959
    81.3224  81.9593  83.2915  83.3559  83.5513  83.7846  83.8926  84.0868
    84.1391  84.5447

     occupation numbers 
     1.0000   1.0000   1.0000   1.0000   1.0000   1.0000   1.0000   1.0000
     1.0000   1.0000   1.0000   1.0000   1.0000   1.0000   1.0000   1.0000
     1.0000   1.0000   1.0000   1.0000   1.0000   1.0000   1.0000   1.0000
     1.0000   1.0000   1.0000  -0.0000  -0.0000  -0.0000  -0.0000  -0.0000
    -0.0000  -0.0000  -0.0000  -0.0000  -0.0000  -0.0000  -0.0000  -0.0000
    -0.0000  -0.0000  -0.0000  -0.0000  -0.0000  -0.0000  -0.0000  -0.0000
    -0.0000  -0.0000  -0.0000  -0.0000  -0.0000  -0.0000  -0.0000  -0.0000
    -0.0000  -0.0000  -0.0000  -0.0000  -0.0000  -0.0000  -0.0000  -0.0000
    -0.0000  -0.0000  -0.0000  -0.0000  -0.0000  -0.0000  -0.0000  -0.0000
    -0.0000  -0.0000  -0.0000  -0.0000  -0.0000  -0.0000  -0.0000  -0.0000
    -0.0000  -0.0000  -0.0000  -0.0000  -0.0000  -0.0000  -0.0000  -0.0000
    -0.0000  -0.0000  -0.0000  -0.0000  -0.0000  -0.0000  -0.0000  -0.0000
    -0.0000  -0.0000

          k = 0.0000 0.3333 0.1000 (  1304 PWs)   bands (ev):

   -72.5685 -69.3521 -39.1936 -38.9244 -38.0076 -35.7657 -35.3561 -34.8976
     9.7491   9.9174  11.8943  12.2834  12.8697  12.9142  13.2874  13.3768
    13.4931  13.7152  13.7881  14.1729  14.4551  14.8152  14.8678  15.0551
    15.1001  15.1877  15.2302  16.8663  17.1096  17.4533  20.2345  21.1235
    22.3279  23.1781  28.3709  28.8640  29.4729  30.0541  34.8328  35.1798
    35.2655  35.5596  37.6403  37.8624  40.9158  40.9513  43.5411  43.8621
    44.0776  44.4951  44.7826  44.8834  50.5038  50.5583  50.5773  50.6020
    50.8329  50.9783  51.0785  51.1554  52.4861  52.7944  54.7530  55.0926
    58.4663  58.8318  59.0610  59.1539  60.6719  61.0446  61.3656  61.7991
    62.9115  62.9631  67.4428  67.7361  71.3326  71.5041  71.6459  72.0090
    72.7418  73.0219  73.4805  73.7779  75.0242  75.2647  79.0307  79.5352
    79.9275  80.3282  81.5694  81.5910  81.6835  81.8626  82.6280  83.1080
    83.6276  83.8630

     occupation numbers 
     1.0000   1.0000   1.0000   1.0000   1.0000   1.0000   1.0000   1.0000
     1.0000   1.0000   1.0000   1.0000   1.0000   1.0000   1.0000   1.0000
     1.0000   1.0000   1.0000   1.0000   1.0000   1.0000   1.0000   1.0000
     1.0000   1.0000   1.0000  -0.0000  -0.0000  -0.0000  -0.0000  -0.0000
    -0.0000  -0.0000  -0.0000  -0.0000  -0.0000  -0.0000  -0.0000  -0.0000
    -0.0000  -0.0000  -0.0000  -0.0000  -0.0000  -0.0000  -0.0000  -0.0000
    -0.0000  -0.0000  -0.0000  -0.0000  -0.0000  -0.0000  -0.0000  -0.0000
    -0.0000  -0.0000  -0.0000  -0.0000  -0.0000  -0.0000  -0.0000  -0.0000
    -0.0000  -0.0000  -0.0000  -0.0000  -0.0000  -0.0000  -0.0000  -0.0000
    -0.0000  -0.0000  -0.0000  -0.0000  -0.0000  -0.0000  -0.0000  -0.0000
    -0.0000  -0.0000  -0.0000  -0.0000  -0.0000  -0.0000  -0.0000  -0.0000
    -0.0000  -0.0000  -0.0000  -0.0000  -0.0000  -0.0000  -0.0000  -0.0000
    -0.0000  -0.0000

          k = 0.0000 0.3333 0.2000 (  1308 PWs)   bands (ev):

   -72.5685 -69.3520 -39.1937 -38.9254 -38.0076 -35.7658 -35.3576 -34.8976
    10.1188  10.4078  11.5503  12.4493  12.5725  13.2731  13.4431  13.4771
    13.5449  13.6807  13.8834  13.9689  14.6967  14.8054  14.8274  14.9367
    14.9885  15.2951  15.3244  16.7758  17.2360  17.5756  18.2742  19.3941
    22.6060  23.4692  27.1287  27.7663  31.8444  32.2315  35.6798  36.0115
    37.8588  37.8771  37.9977  38.0712  39.9438  40.2971  41.3728  41.8238
    44.1977  44.4924  44.9943  45.2728  48.0354  48.1082  48.5944  48.6075
    48.8021  48.9744  52.6180  52.9631  54.2155  54.6351  55.3752  55.7752
    55.8703  56.2260  59.9006  60.1709  61.5012  62.0463  62.7738  63.0670
    67.1477  67.3648  67.4306  67.4886  70.8923  70.9050  71.0602  71.2987
    72.9751  73.3491  73.6324  74.1425  74.5439  75.0869  76.9079  77.1284
    77.4607  77.9601  78.8221  78.9359  79.4939  79.5584  80.4339  80.7167
    85.1619  85.4899

     occupation numbers 
     1.0000   1.0000   1.0000   1.0000   1.0000   1.0000   1.0000   1.0000
     1.0000   1.0000   1.0000   1.0000   1.0000   1.0000   1.0000   1.0000
     1.0000   1.0000   1.0000   1.0000   1.0000   1.0000   1.0000   1.0000
     1.0000   1.0000   1.0000  -0.0000  -0.0000  -0.0000  -0.0000  -0.0000
    -0.0000  -0.0000  -0.0000  -0.0000  -0.0000  -0.0000  -0.0000  -0.0000
    -0.0000  -0.0000  -0.0000  -0.0000  -0.0000  -0.0000  -0.0000  -0.0000
    -0.0000  -0.0000  -0.0000  -0.0000  -0.0000  -0.0000  -0.0000  -0.0000
    -0.0000  -0.0000  -0.0000  -0.0000  -0.0000  -0.0000  -0.0000  -0.0000
    -0.0000  -0.0000  -0.0000  -0.0000  -0.0000  -0.0000  -0.0000  -0.0000
    -0.0000  -0.0000  -0.0000  -0.0000  -0.0000  -0.0000  -0.0000  -0.0000
    -0.0000  -0.0000  -0.0000  -0.0000  -0.0000  -0.0000  -0.0000  -0.0000
    -0.0000  -0.0000  -0.0000  -0.0000  -0.0000  -0.0000  -0.0000  -0.0000
    -0.0000  -0.0000

          k = 0.0000 0.3333 0.3000 (  1306 PWs)   bands (ev):

   -72.5684 -69.3520 -39.1935 -38.9264 -38.0074 -35.7656 -35.3589 -34.8974
    10.5664  11.0763  11.1328  11.8461  12.9562  13.3401  13.4738  13.5937
    13.6964  13.7185  14.0589  14.1689  14.6209  14.6912  14.8392  15.1193
    15.1318  15.3110  15.3625  16.3510  16.9328  17.4268  17.5828  17.8904
    23.6396  24.4104  25.2469  26.0323  35.3251  35.4439  37.0282  37.2811
    37.3748  37.5306  38.6355  38.9131  39.0803  39.6108  40.8314  41.2684
    43.2727  43.5320  45.2472  45.4559  46.0270  46.2587  46.8262  47.2879
    48.8715  49.0784  51.1209  51.4602  54.6247  55.0153  55.2980  55.7222
    58.1337  58.5323  61.3734  61.5687  62.1776  62.6055  63.8459  64.0134
    65.7243  66.1684  69.1497  69.4533  69.7540  70.2003  71.3619  71.3941
    71.8004  72.1964  74.1731  74.6082  74.7804  74.7983  75.5509  75.5980
    75.9532  76.1586  77.5164  77.6525  78.9110  79.1581  80.5706  80.9306
    85.3377  85.5922

     occupation numbers 
     1.0000   1.0000   1.0000   1.0000   1.0000   1.0000   1.0000   1.0000
     1.0000   1.0000   1.0000   1.0000   1.0000   1.0000   1.0000   1.0000
     1.0000   1.0000   1.0000   1.0000   1.0000   1.0000   1.0000   1.0000
     1.0000   1.0000   1.0000  -0.0003  -0.0000  -0.0000  -0.0000  -0.0000
    -0.0000  -0.0000  -0.0000  -0.0000  -0.0000  -0.0000  -0.0000  -0.0000
    -0.0000  -0.0000  -0.0000  -0.0000  -0.0000  -0.0000  -0.0000  -0.0000
    -0.0000  -0.0000  -0.0000  -0.0000  -0.0000  -0.0000  -0.0000  -0.0000
    -0.0000  -0.0000  -0.0000  -0.0000  -0.0000  -0.0000  -0.0000  -0.0000
    -0.0000  -0.0000  -0.0000  -0.0000  -0.0000  -0.0000  -0.0000  -0.0000
    -0.0000  -0.0000  -0.0000  -0.0000  -0.0000  -0.0000  -0.0000  -0.0000
    -0.0000  -0.0000  -0.0000  -0.0000  -0.0000  -0.0000  -0.0000  -0.0000
    -0.0000  -0.0000  -0.0000  -0.0000  -0.0000  -0.0000  -0.0000  -0.0000
    -0.0000  -0.0000

          k = 0.0000 0.4444 0.0000 (  1312 PWs)   bands (ev):

   -72.5628 -69.3457 -39.2196 -38.9205 -38.0269 -35.7980 -35.3507 -34.9165
    11.0693  11.3515  12.0396  12.4845  12.5565  12.7031  12.9349  13.1801
    13.4671  13.6452  13.9017  14.2182  14.3420  14.4854  14.7092  14.8135
    15.0181  15.2129  16.1967  16.8461  17.2330  17.3838  18.0792  19.7404
    25.8692  26.5214  27.5593  27.9606  28.7164  29.3065  29.8470  30.4226
    37.1407  37.5267  38.4520  38.5730  40.0471  40.1477  40.1912  40.5850
    45.8981  45.9098  47.7402  47.8954  48.7052  48.7161  49.6350  50.0277
    50.0741  50.5834  53.5057  53.9016  53.9975  54.1726  55.6396  56.1142
    58.6720  58.7650  58.9301  59.3983  61.2565  61.4900  62.2482  62.4967
    63.7155  64.1817  65.7756  66.0719  67.6888  68.1975  71.8672  71.8863
    73.6613  74.0503  76.8589  77.6251  78.4949  78.6903  78.8580  78.8684
    81.2680  81.6294  81.8673  82.1491  83.5029  83.5310  83.9342  84.4857
    84.7234  85.1957

     occupation numbers 
     1.0000   1.0000   1.0000   1.0000   1.0000   1.0000   1.0000   1.0000
     1.0000   1.0000   1.0000   1.0000   1.0000   1.0000   1.0000   1.0000
     1.0000   1.0000   1.0000   1.0000   1.0000   1.0000   1.0000   1.0000
     1.0000   1.0000  -0.0196  -0.0000  -0.0000  -0.0000  -0.0000  -0.0000
    -0.0000  -0.0000  -0.0000  -0.0000  -0.0000  -0.0000  -0.0000  -0.0000
    -0.0000  -0.0000  -0.0000  -0.0000  -0.0000  -0.0000  -0.0000  -0.0000
    -0.0000  -0.0000  -0.0000  -0.0000  -0.0000  -0.0000  -0.0000  -0.0000
    -0.0000  -0.0000  -0.0000  -0.0000  -0.0000  -0.0000  -0.0000  -0.0000
    -0.0000  -0.0000  -0.0000  -0.0000  -0.0000  -0.0000  -0.0000  -0.0000
    -0.0000  -0.0000  -0.0000  -0.0000  -0.0000  -0.0000  -0.0000  -0.0000
    -0.0000  -0.0000  -0.0000  -0.0000  -0.0000  -0.0000  -0.0000  -0.0000
    -0.0000  -0.0000  -0.0000  -0.0000  -0.0000  -0.0000  -0.0000  -0.0000
    -0.0000  -0.0000

          k = 0.0000 0.4444 0.1000 (  1307 PWs)   bands (ev):

   -72.5628 -69.3456 -39.2195 -38.9209 -38.0268 -35.7979 -35.3512 -34.9163
    10.9826  11.3909  11.7019  12.5005  12.6393  12.9324  13.2013  13.2531
    13.6729  13.7293  13.7455  13.9532  14.6209  14.6576  14.7446  14.9172
    15.0832  15.1143  16.1074  16.9716  17.3036  17.3236  17.9898  19.5829
    23.9259  24.6930  26.4449  27.0770  30.0649  30.4931  32.4517  32.8921
    37.3634  37.7329  38.4281  38.5345  39.7789  39.8414  40.3669  40.7608
    45.7868  45.8392  45.8541  46.1595  47.9763  48.0892  48.1439  48.5544
    52.3826  52.7648  53.1887  53.3776  55.3541  55.8199  55.9904  56.0810
    56.5506  56.7887  58.3015  58.6859  59.5807  60.0505  64.9652  65.3199
    65.4044  65.5460  67.7891  68.1587  68.4798  68.7788  72.6905  73.0435
    73.2273  73.3185  73.9485  74.3497  76.4037  76.9164  78.6581  79.0630
    79.4322  79.4699  80.2526  80.2716  81.7006  82.0246  83.2178  83.7454
    86.8755  87.0312

     occupation numbers 
     1.0000   1.0000   1.0000   1.0000   1.0000   1.0000   1.0000   1.0000
     1.0000   1.0000   1.0000   1.0000   1.0000   1.0000   1.0000   1.0000
     1.0000   1.0000   1.0000   1.0000   1.0000   1.0000   1.0000   1.0000
     1.0000   1.0000  -0.0270  -0.0000  -0.0000  -0.0000  -0.0000  -0.0000
    -0.0000  -0.0000  -0.0000  -0.0000  -0.0000  -0.0000  -0.0000  -0.0000
    -0.0000  -0.0000  -0.0000  -0.0000  -0.0000  -0.0000  -0.0000  -0.0000
    -0.0000  -0.0000  -0.0000  -0.0000  -0.0000  -0.0000  -0.0000  -0.0000
    -0.0000  -0.0000  -0.0000  -0.0000  -0.0000  -0.0000  -0.0000  -0.0000
    -0.0000  -0.0000  -0.0000  -0.0000  -0.0000  -0.0000  -0.0000  -0.0000
    -0.0000  -0.0000  -0.0000  -0.0000  -0.0000  -0.0000  -0.0000  -0.0000
    -0.0000  -0.0000  -0.0000  -0.0000  -0.0000  -0.0000  -0.0000  -0.0000
    -0.0000  -0.0000  -0.0000  -0.0000  -0.0000  -0.0000  -0.0000  -0.0000
    -0.0000  -0.0000

          k = 0.0000 0.4444 0.2000 (  1307 PWs)   bands (ev):

   -72.5627 -69.3456 -39.2193 -38.9219 -38.0266 -35.7977 -35.3526 -34.9160
    10.8250  11.3216  11.4811  12.1528  12.8734  13.2938  13.4438  13.6390
    13.7982  13.8670  13.9474  14.3719  14.5837  14.8941  14.9894  15.0090
    15.1850  15.2569  15.8210  17.0695  17.2288  17.4791  17.5234  18.9618
    22.2269  23.2229  24.2572  25.0758  33.4540  33.7059  35.6695  35.8828
    38.0158  38.3170  38.4651  38.5609  39.3052  39.4304  40.8283  41.2214
    43.6419  44.0537  45.0093  45.0802  45.9652  46.3636  46.3977  46.7590
    50.0817  50.3325  52.7378  53.1010  55.8820  56.2105  58.0656  58.2699
    58.6253  59.1816  59.2243  59.4281  60.5800  61.0683  63.6299  63.8881
    67.2535  67.5922  69.2193  69.5387  70.1130  70.3276  71.7175  71.7272
    71.8613  72.2454  74.1324  74.4124  75.7394  75.8163  75.9009  76.0796
    77.2612  77.6042  78.8688  79.3376  82.1275  82.6124  82.6514  82.7196
    85.6505  85.6923

     occupation numbers 
     1.0000   1.0000   1.0000   1.0000   1.0000   1.0000   1.0000   1.0000
     1.0000   1.0000   1.0000   1.0000   1.0000   1.0000   1.0000   1.0000
     1.0000   1.0000   1.0000   1.0000   1.0000   1.0000   1.0000   1.0000
     1.0000   1.0000   1.0319  -0.0000  -0.0000  -0.0000  -0.0000  -0.0000
    -0.0000  -0.0000  -0.0000  -0.0000  -0.0000  -0.0000  -0.0000  -0.0000
    -0.0000  -0.0000  -0.0000  -0.0000  -0.0000  -0.0000  -0.0000  -0.0000
    -0.0000  -0.0000  -0.0000  -0.0000  -0.0000  -0.0000  -0.0000  -0.0000
    -0.0000  -0.0000  -0.0000  -0.0000  -0.0000  -0.0000  -0.0000  -0.0000
    -0.0000  -0.0000  -0.0000  -0.0000  -0.0000  -0.0000  -0.0000  -0.0000
    -0.0000  -0.0000  -0.0000  -0.0000  -0.0000  -0.0000  -0.0000  -0.0000
    -0.0000  -0.0000  -0.0000  -0.0000  -0.0000  -0.0000  -0.0000  -0.0000
    -0.0000  -0.0000  -0.0000  -0.0000  -0.0000  -0.0000  -0.0000  -0.0000
    -0.0000  -0.0000

          k = 0.0000 0.4444 0.3000 (  1298 PWs)   bands (ev):

   -72.5626 -69.3455 -39.2190 -38.9226 -38.0262 -35.7973 -35.3537 -34.9156
    10.7235  11.1061  11.5989  11.8619  13.0755  13.3016  13.3397  13.4769
    14.2066  14.4864  14.5977  14.7554  14.9853  15.0543  15.2135  15.2271
    15.3040  15.3541  15.5314  16.3975  16.7606  17.4232  17.5865  18.0103
    21.8109  22.7405  22.8792  23.7771  36.4048  36.4837  37.2221  37.4537
    38.9581  39.0252  39.1706  39.3088  40.0879  40.5467  40.7599  41.3255
    42.7914  42.8800  42.9278  43.2212  43.9933  44.1133  44.5476  44.5986
    48.7770  49.0297  50.2387  50.6723  59.6631  59.7914  59.9654  60.2357
    60.3473  60.5795  61.9059  62.5129  62.8288  63.1161  63.1384  63.2199
    65.1702  65.4736  67.0686  67.2664  67.3268  67.5430  67.8131  67.9521
    72.4438  72.4454  73.9681  74.2455  77.7574  77.8136  78.6520  79.0516
    79.6391  80.1372  80.1485  80.4542  80.8363  81.2860  82.2911  82.3493
    85.6578  85.7807

     occupation numbers 
     1.0000   1.0000   1.0000   1.0000   1.0000   1.0000   1.0000   1.0000
     1.0000   1.0000   1.0000   1.0000   1.0000   1.0000   1.0000   1.0000
     1.0000   1.0000   1.0000   1.0000   1.0000   1.0000   1.0000   1.0000
     1.0000   1.0000   1.0000  -0.0000  -0.0000  -0.0000  -0.0000  -0.0000
    -0.0000  -0.0000  -0.0000  -0.0000  -0.0000  -0.0000  -0.0000  -0.0000
    -0.0000  -0.0000  -0.0000  -0.0000  -0.0000  -0.0000  -0.0000  -0.0000
    -0.0000  -0.0000  -0.0000  -0.0000  -0.0000  -0.0000  -0.0000  -0.0000
    -0.0000  -0.0000  -0.0000  -0.0000  -0.0000  -0.0000  -0.0000  -0.0000
    -0.0000  -0.0000  -0.0000  -0.0000  -0.0000  -0.0000  -0.0000  -0.0000
    -0.0000  -0.0000  -0.0000  -0.0000  -0.0000  -0.0000  -0.0000  -0.0000
    -0.0000  -0.0000  -0.0000  -0.0000  -0.0000  -0.0000  -0.0000  -0.0000
    -0.0000  -0.0000  -0.0000  -0.0000  -0.0000  -0.0000  -0.0000  -0.0000
    -0.0000  -0.0000

          k = 0.1111 0.1111 0.0000 (  1315 PWs)   bands (ev):

   -72.5822 -69.3673 -39.1368 -38.9322 -37.9585 -35.6967 -35.3666 -34.8467
     7.6382   7.7175  11.1620  11.7846  12.2734  12.8568  13.1574  13.5840
    13.5959  14.2438  14.3562  14.3833  14.5543  14.6411  14.9983  15.1754
    15.3504  15.5241  16.1411  16.3479  17.6049  17.7490  19.7890  20.4433
    25.1579  26.0973  28.1063  28.4620  29.0110  29.3368  37.8113  37.8364
    38.6138  38.8722  39.5372  39.6814  39.9688  40.1110  40.5379  40.5536
    42.1090  42.5187  47.8583  48.0926  48.2846  48.5493  48.7055  48.8095
    48.8891  48.9553  52.0236  52.1768  54.4918  54.6404  56.3000  56.8448
    56.8680  57.1845  57.3962  57.7109  60.5867  61.0437  62.6879  62.8128
    63.6177  64.0540  65.4656  65.5404  66.7934  66.9414  70.2453  70.8123
    71.3776  71.4914  71.6703  71.7478  74.4273  74.4692  75.2622  75.6429
    76.8827  77.3636  77.5197  77.9726  79.5278  80.0705  80.9397  81.2566
    81.4091  81.8218

     occupation numbers 
     1.0000   1.0000   1.0000   1.0000   1.0000   1.0000   1.0000   1.0000
     1.0000   1.0000   1.0000   1.0000   1.0000   1.0000   1.0000   1.0000
     1.0000   1.0000   1.0000   1.0000   1.0000   1.0000   1.0000   1.0000
     1.0000   1.0000  -0.0352  -0.0003  -0.0000  -0.0000  -0.0000  -0.0000
    -0.0000  -0.0000  -0.0000  -0.0000  -0.0000  -0.0000  -0.0000  -0.0000
    -0.0000  -0.0000  -0.0000  -0.0000  -0.0000  -0.0000  -0.0000  -0.0000
    -0.0000  -0.0000  -0.0000  -0.0000  -0.0000  -0.0000  -0.0000  -0.0000
    -0.0000  -0.0000  -0.0000  -0.0000  -0.0000  -0.0000  -0.0000  -0.0000
    -0.0000  -0.0000  -0.0000  -0.0000  -0.0000  -0.0000  -0.0000  -0.0000
    -0.0000  -0.0000  -0.0000  -0.0000  -0.0000  -0.0000  -0.0000  -0.0000
    -0.0000  -0.0000  -0.0000  -0.0000  -0.0000  -0.0000  -0.0000  -0.0000
    -0.0000  -0.0000  -0.0000  -0.0000  -0.0000  -0.0000  -0.0000  -0.0000
    -0.0000  -0.0000

          k = 0.1111 0.1111 0.1000 (  1314 PWs)   bands (ev):

   -72.5821 -69.3673 -39.1369 -38.9327 -37.9586 -35.6968 -35.3674 -34.8468
     7.8860   7.9670  11.2132  11.8555  12.2651  12.9269  13.1381  13.5699
    13.6382  14.1463  14.2140  14.3709  14.5816  14.6128  15.0039  15.1611
    15.3065  15.3921  15.7609  16.4579  17.4567  17.7469  18.5480  19.5497
    26.8656  27.6047  28.4395  28.8124  29.3512  29.6910  36.2824  36.4954
    37.3712  37.6457  38.7739  39.0460  41.2907  41.4021  42.2132  42.5954
    42.8298  42.9931  45.9897  46.1294  46.3861  46.7188  48.6797  49.2743
    50.7058  50.7761  53.1376  53.4984  53.6145  53.7495  54.2621  54.2717
    57.7536  58.3532  60.1288  60.5187  61.3552  61.6616  61.7707  61.7956
    62.7506  63.1112  64.5607  65.0179  66.4661  66.6912  69.0265  69.5156
    70.4533  70.6039  72.7050  72.7662  73.6622  74.2776  74.8644  75.3346
    77.9765  78.3066  78.3903  78.5265  79.7870  80.0407  81.9686  82.6068
    83.4824  83.9500

     occupation numbers 
     1.0000   1.0000   1.0000   1.0000   1.0000   1.0000   1.0000   1.0000
     1.0000   1.0000   1.0000   1.0000   1.0000   1.0000   1.0000   1.0000
     1.0000   1.0000   1.0000   1.0000   1.0000   1.0000   1.0000   1.0000
     1.0000   1.0000   1.0264  -0.0000  -0.0000  -0.0000  -0.0000  -0.0000
    -0.0000  -0.0000  -0.0000  -0.0000  -0.0000  -0.0000  -0.0000  -0.0000
    -0.0000  -0.0000  -0.0000  -0.0000  -0.0000  -0.0000  -0.0000  -0.0000
    -0.0000  -0.0000  -0.0000  -0.0000  -0.0000  -0.0000  -0.0000  -0.0000
    -0.0000  -0.0000  -0.0000  -0.0000  -0.0000  -0.0000  -0.0000  -0.0000
    -0.0000  -0.0000  -0.0000  -0.0000  -0.0000  -0.0000  -0.0000  -0.0000
    -0.0000  -0.0000  -0.0000  -0.0000  -0.0000  -0.0000  -0.0000  -0.0000
    -0.0000  -0.0000  -0.0000  -0.0000  -0.0000  -0.0000  -0.0000  -0.0000
    -0.0000  -0.0000  -0.0000  -0.0000  -0.0000  -0.0000  -0.0000  -0.0000
    -0.0000  -0.0000

          k = 0.1111 0.1111 0.2000 (  1315 PWs)   bands (ev):

   -72.5821 -69.3672 -39.1370 -38.9342 -37.9586 -35.6969 -35.3696 -34.8468
     8.5996   8.6900  11.2337  12.0223  12.0562  12.9893  13.1160  13.5645
    13.6563  13.7780  14.1064  14.3109  14.4810  14.7486  14.9034  14.9870
    15.0653  15.2011  15.3792  16.5178  16.7540  17.1138  17.6844  18.3710
    29.3520  29.6769  29.7627  30.1089  30.7987  31.2583  34.2819  34.6650
    35.0486  35.3602  39.2395  39.4581  42.1958  42.2367  42.2933  42.3685
    42.8326  43.2796  45.3858  45.5235  46.5292  46.8605  46.9521  47.6233
    51.5761  51.7797  53.1066  53.1232  53.2281  53.7513  56.9967  57.0788
    57.4172  57.4577  59.5979  60.2256  60.2570  60.4347  62.3384  62.4747
    62.5146  62.8730  64.9681  65.3022  65.6820  66.2358  67.6278  68.0756
    70.1248  70.2328  70.3800  70.6403  74.5217  75.0360  75.4159  75.6639
    77.4671  77.9143  80.4562  80.7654  81.0256  81.5091  83.8580  84.1125
    86.5652  87.0849

     occupation numbers 
     1.0000   1.0000   1.0000   1.0000   1.0000   1.0000   1.0000   1.0000
     1.0000   1.0000   1.0000   1.0000   1.0000   1.0000   1.0000   1.0000
     1.0000   1.0000   1.0000   1.0000   1.0000   1.0000   1.0000   1.0000
     1.0000   1.0000   1.0000  -0.0000  -0.0000  -0.0000  -0.0000  -0.0000
    -0.0000  -0.0000  -0.0000  -0.0000  -0.0000  -0.0000  -0.0000  -0.0000
    -0.0000  -0.0000  -0.0000  -0.0000  -0.0000  -0.0000  -0.0000  -0.0000
    -0.0000  -0.0000  -0.0000  -0.0000  -0.0000  -0.0000  -0.0000  -0.0000
    -0.0000  -0.0000  -0.0000  -0.0000  -0.0000  -0.0000  -0.0000  -0.0000
    -0.0000  -0.0000  -0.0000  -0.0000  -0.0000  -0.0000  -0.0000  -0.0000
    -0.0000  -0.0000  -0.0000  -0.0000  -0.0000  -0.0000  -0.0000  -0.0000
    -0.0000  -0.0000  -0.0000  -0.0000  -0.0000  -0.0000  -0.0000  -0.0000
    -0.0000  -0.0000  -0.0000  -0.0000  -0.0000  -0.0000  -0.0000  -0.0000
    -0.0000  -0.0000

          k = 0.1111 0.1111 0.3000 (  1304 PWs)   bands (ev):

   -72.5819 -69.3671 -39.1368 -38.9353 -37.9584 -35.6968 -35.3711 -34.8466
     9.6620   9.7821  10.7476  11.1321  12.3395  12.7146  13.2774  13.3294
    13.4588  14.0744  14.1395  14.2196  14.3629  14.5636  14.5846  14.8054
    15.0980  15.2703  15.3001  15.6490  16.5887  16.8029  17.4267  17.9296
    30.6808  31.0329  31.2687  31.5749  32.4663  33.0034  33.0547  33.4446
    34.4289  34.8011  38.5051  38.7406  40.0155  40.0962  41.2294  41.4771
    43.4184  43.8966  44.9258  45.4357  47.6215  47.7800  49.4041  49.5646
    49.6239  49.8645  53.1724  53.2461  55.2900  55.7104  55.7927  55.8200
    58.0318  58.3556  58.7707  58.8316  59.6891  59.9759  62.1488  62.4542
    62.5708  63.0916  64.7228  64.9196  66.1996  66.7903  67.1901  67.3369
    68.7901  69.2357  70.8240  71.2835  73.8942  74.3033  74.9855  75.5055
    79.6233  79.9173  80.0017  80.3305  82.0039  82.3771  83.9263  84.2975
    85.4142  85.8919

     occupation numbers 
     1.0000   1.0000   1.0000   1.0000   1.0000   1.0000   1.0000   1.0000
     1.0000   1.0000   1.0000   1.0000   1.0000   1.0000   1.0000   1.0000
     1.0000   1.0000   1.0000   1.0000   1.0000   1.0000   1.0000   1.0000
     1.0000   1.0000   1.0000   1.0022  -0.0000  -0.0000  -0.0000  -0.0000
    -0.0000  -0.0000  -0.0000  -0.0000  -0.0000  -0.0000  -0.0000  -0.0000
    -0.0000  -0.0000  -0.0000  -0.0000  -0.0000  -0.0000  -0.0000  -0.0000
    -0.0000  -0.0000  -0.0000  -0.0000  -0.0000  -0.0000  -0.0000  -0.0000
    -0.0000  -0.0000  -0.0000  -0.0000  -0.0000  -0.0000  -0.0000  -0.0000
    -0.0000  -0.0000  -0.0000  -0.0000  -0.0000  -0.0000  -0.0000  -0.0000
    -0.0000  -0.0000  -0.0000  -0.0000  -0.0000  -0.0000  -0.0000  -0.0000
    -0.0000  -0.0000  -0.0000  -0.0000  -0.0000  -0.0000  -0.0000  -0.0000
    -0.0000  -0.0000  -0.0000  -0.0000  -0.0000  -0.0000  -0.0000  -0.0000
    -0.0000  -0.0000

          k = 0.1111 0.2222 0.0000 (  1325 PWs)   bands (ev):

   -72.5745 -69.3587 -39.1667 -38.9276 -37.9898 -35.7312 -35.3605 -34.8815
     8.5315   8.6257  11.5516  12.1109  12.6845  12.8779  13.1405  13.5513
    13.7142  13.8604  14.0084  14.1680  14.4857  14.6411  14.7059  15.0554
    15.4263  15.4529  15.6868  16.5203  17.3538  17.5149  21.4472  22.1388
    24.4160  25.0231  25.7393  26.4823  29.7718  30.1582  35.2924  35.6279
    36.1603  36.4586  39.5160  39.7231  40.0936  40.2289  40.2866  40.4170
    45.3636  45.9538  46.2894  46.6842  48.7673  48.9377  49.2294  49.2674
    50.8496  51.0186  52.1124  52.1361  55.2148  55.5050  55.9919  56.2792
    56.9107  57.4057  58.5180  59.1113  59.9603  60.0975  60.6985  61.1452
    64.5514  64.8043  67.3410  67.7505  68.2464  68.2644  68.6031  69.0089
[...]
    11.8332  12.1239  12.3978  12.5149  12.6211  12.8079  12.9745  13.0465
    13.5269  13.5747  14.1201  14.1632  14.2015  14.3351  14.8477  15.0678
    15.1519  16.3092  16.9732  17.1488  18.0061  19.3197  19.4656  20.5440
    24.5852  25.2004  26.5466  26.8688  27.1746  27.2497  28.1556  28.9093
    33.1924  33.3976  34.5732  35.2579  38.6892  38.9050  42.4232  42.6290
    44.3688  44.5389  48.5306  48.6507  49.4740  49.8446  52.7320  52.8117
    53.1544  53.5144  54.1064  54.1222  54.9674  55.4491  58.4458  58.7101
    58.8450  59.0424  60.0158  60.5498  63.1505  63.2636  64.2150  64.3679
    65.1018  65.2983  65.4521  65.8552  73.2941  73.6449  76.1603  76.2182
    76.4052  76.5700  76.5917  76.7569  76.7770  77.1315  78.8373  79.0526
    80.7784  80.9041  82.0215  82.0866  82.6093  83.0253  84.0636  84.1253
    84.2144  84.5310

     occupation numbers 
     1.0000   1.0000   1.0000   1.0000   1.0000   1.0000   1.0000   1.0000
     1.0000   1.0000   1.0000   1.0000   1.0000   1.0000   1.0000   1.0000
     1.0000   1.0000   1.0000   1.0000   1.0000   1.0000   1.0000   1.0000
     1.0000  -0.0011  -0.0000  -0.0000  -0.0000  -0.0000  -0.0000  -0.0000
    -0.0000  -0.0000  -0.0000  -0.0000  -0.0000  -0.0000  -0.0000  -0.0000
    -0.0000  -0.0000  -0.0000  -0.0000  -0.0000  -0.0000  -0.0000  -0.0000
    -0.0000  -0.0000  -0.0000  -0.0000  -0.0000  -0.0000  -0.0000  -0.0000
    -0.0000  -0.0000  -0.0000  -0.0000  -0.0000  -0.0000  -0.0000  -0.0000
    -0.0000  -0.0000  -0.0000  -0.0000  -0.0000  -0.0000  -0.0000  -0.0000
    -0.0000  -0.0000  -0.0000  -0.0000  -0.0000  -0.0000  -0.0000  -0.0000
    -0.0000  -0.0000  -0.0000  -0.0000  -0.0000  -0.0000  -0.0000  -0.0000
    -0.0000  -0.0000  -0.0000  -0.0000  -0.0000  -0.0000  -0.0000  -0.0000
    -0.0000  -0.0000

          k = 0.3333 0.4444 0.0000 (  1316 PWs)   bands (ev):

   -72.5436 -69.3243 -39.2765 -38.9080 -38.1143 -35.8538 -35.3342 -35.0226
    10.9407  11.3466  11.7101  11.7800  11.9228  12.3066  12.8477  12.9338
    14.3118  14.6921  14.9572  15.0660  15.1128  15.1886  15.4205  16.0233
    16.6437  16.6932  16.9503  17.2098  17.3547  17.9791  19.1761  20.0396
    26.5224  27.2947  28.0218  28.3964  28.6948  29.0134  29.2493  29.4227
    30.3973  30.7890  30.9267  31.1975  36.4962  36.9002  38.4786  38.8798
    39.8933  40.1661  42.3574  43.0141  53.9949  54.1107  56.4181  56.5876
    59.8118  59.8215  60.1910  60.3989  61.2175  61.3392  62.1574  62.4579
    62.5507  62.5838  64.2404  64.2931  65.2636  65.3284  67.4532  67.7441
    68.3484  68.6822  69.0880  69.3302  69.5191  69.8166  70.1213  70.5791
    70.8160  70.9675  72.4146  72.6741  72.7446  72.8329  73.2418  73.6834
    74.2200  74.7886  75.3872  75.8088  77.2569  77.5431  78.5608  78.8305
    79.8298  79.9776

     occupation numbers 
     1.0000   1.0000   1.0000   1.0000   1.0000   1.0000   1.0000   1.0000
     1.0000   1.0000   1.0000   1.0000   1.0000   1.0000   1.0000   1.0000
     1.0000   1.0000   1.0000   1.0000   1.0000   1.0000   1.0000   0.1891
    -0.0000  -0.0000  -0.0000  -0.0000  -0.0000  -0.0000  -0.0000  -0.0000
    -0.0000  -0.0000  -0.0000  -0.0000  -0.0000  -0.0000  -0.0000  -0.0000
    -0.0000  -0.0000  -0.0000  -0.0000  -0.0000  -0.0000  -0.0000  -0.0000
    -0.0000  -0.0000  -0.0000  -0.0000  -0.0000  -0.0000  -0.0000  -0.0000
    -0.0000  -0.0000  -0.0000  -0.0000  -0.0000  -0.0000  -0.0000  -0.0000
    -0.0000  -0.0000  -0.0000  -0.0000  -0.0000  -0.0000  -0.0000  -0.0000
    -0.0000  -0.0000  -0.0000  -0.0000  -0.0000  -0.0000  -0.0000  -0.0000
    -0.0000  -0.0000  -0.0000  -0.0000  -0.0000  -0.0000  -0.0000  -0.0000
    -0.0000  -0.0000  -0.0000  -0.0000  -0.0000  -0.0000  -0.0000  -0.0000
    -0.0000  -0.0000

          k = 0.3333 0.4444 0.1000 (  1321 PWs)   bands (ev):

   -72.5436 -69.3243 -39.2766 -38.9087 -38.1144 -35.8540 -35.3351 -35.0227
    11.0636  11.4827  11.7816  11.8634  12.0697  12.4507  12.8998  13.0017
    14.1513  14.2965  14.7569  14.7706  14.9639  15.3184  15.4743  15.6423
    16.2642  16.7503  17.1693  17.2441  17.6182  18.4744  19.6115  20.4629
    25.6185  26.1687  26.8392  27.4819  28.1029  28.6209  29.0459  29.5982
    31.2461  31.4550  31.9788  32.4881  36.6372  36.9922  37.3677  37.8264
    41.6504  41.9170  44.1830  44.7716  54.0885  54.2053  54.6984  54.8755
    56.7445  56.8870  57.0982  57.1139  61.6693  62.0875  62.7717  62.8489
    63.7020  63.7173  63.9240  64.2428  65.8168  66.0013  66.5294  66.8322
    67.6196  68.0143  68.6990  68.9305  69.1031  69.3515  70.7528  71.1953
    71.2736  71.5984  72.4528  72.7544  74.1777  74.4093  74.4647  74.7006
    76.7159  76.9578  77.3046  77.5087  77.5198  78.0845  78.2063  78.5056
    80.8062  81.0420

     occupation numbers 
     1.0000   1.0000   1.0000   1.0000   1.0000   1.0000   1.0000   1.0000
     1.0000   1.0000   1.0000   1.0000   1.0000   1.0000   1.0000   1.0000
     1.0000   1.0000   1.0000   1.0000   1.0000   1.0000   1.0000   1.0018
    -0.0044  -0.0000  -0.0000  -0.0000  -0.0000  -0.0000  -0.0000  -0.0000
    -0.0000  -0.0000  -0.0000  -0.0000  -0.0000  -0.0000  -0.0000  -0.0000
    -0.0000  -0.0000  -0.0000  -0.0000  -0.0000  -0.0000  -0.0000  -0.0000
    -0.0000  -0.0000  -0.0000  -0.0000  -0.0000  -0.0000  -0.0000  -0.0000
    -0.0000  -0.0000  -0.0000  -0.0000  -0.0000  -0.0000  -0.0000  -0.0000
    -0.0000  -0.0000  -0.0000  -0.0000  -0.0000  -0.0000  -0.0000  -0.0000
    -0.0000  -0.0000  -0.0000  -0.0000  -0.0000  -0.0000  -0.0000  -0.0000
    -0.0000  -0.0000  -0.0000  -0.0000  -0.0000  -0.0000  -0.0000  -0.0000
    -0.0000  -0.0000  -0.0000  -0.0000  -0.0000  -0.0000  -0.0000  -0.0000
    -0.0000  -0.0000

          k = 0.3333 0.4444 0.2000 (  1325 PWs)   bands (ev):

   -72.5436 -69.3242 -39.2767 -38.9100 -38.1144 -35.8541 -35.3368 -35.0227
    11.3800  11.8346  11.9607  12.1281  12.4294  12.8552  13.0193  13.2171
    13.5341  13.6725  14.4724  14.5256  14.5995  15.0315  15.2160  15.4754
    15.7055  16.4773  17.0732  17.7533  18.3480  19.4810  20.6147  21.4390
    23.4618  24.1256  25.9702  26.5116  27.2097  27.8380  29.3699  29.8821
    30.8660  31.2097  32.7509  33.3423  37.3502  37.6541  39.0630  39.3758
    44.7985  45.0395  47.4642  47.9412  50.1962  50.4057  51.7742  51.9593
    54.9246  55.0017  56.8446  56.8973  59.0143  59.2302  61.2125  61.3876
    61.4348  61.9403  62.1300  62.4370  64.2760  64.5784  65.7514  66.0697
    67.5622  67.8947  71.1349  71.2952  71.3879  71.5293  72.7961  73.0402
    73.0659  73.3924  74.3117  74.5200  74.8937  75.1327  75.7906  76.1001
    78.1264  78.3230  78.8313  78.9937  79.8532  80.2193  80.8034  81.2573
    82.7356  82.8193

     occupation numbers 
     1.0000   1.0000   1.0000   1.0000   1.0000   1.0000   1.0000   1.0000
     1.0000   1.0000   1.0000   1.0000   1.0000   1.0000   1.0000   1.0000
     1.0000   1.0000   1.0000   1.0000   1.0000   1.0000   1.0000   1.0000
     1.0098  -0.0000  -0.0000  -0.0000  -0.0000  -0.0000  -0.0000  -0.0000
    -0.0000  -0.0000  -0.0000  -0.0000  -0.0000  -0.0000  -0.0000  -0.0000
    -0.0000  -0.0000  -0.0000  -0.0000  -0.0000  -0.0000  -0.0000  -0.0000
    -0.0000  -0.0000  -0.0000  -0.0000  -0.0000  -0.0000  -0.0000  -0.0000
    -0.0000  -0.0000  -0.0000  -0.0000  -0.0000  -0.0000  -0.0000  -0.0000
    -0.0000  -0.0000  -0.0000  -0.0000  -0.0000  -0.0000  -0.0000  -0.0000
    -0.0000  -0.0000  -0.0000  -0.0000  -0.0000  -0.0000  -0.0000  -0.0000
    -0.0000  -0.0000  -0.0000  -0.0000  -0.0000  -0.0000  -0.0000  -0.0000
    -0.0000  -0.0000  -0.0000  -0.0000  -0.0000  -0.0000  -0.0000  -0.0000
    -0.0000  -0.0000

          k = 0.3333 0.4444 0.3000 (  1322 PWs)   bands (ev):

   -72.5435 -69.3242 -39.2766 -38.9110 -38.1143 -35.8541 -35.3381 -35.0226
    11.7577  12.0554  12.2829  12.4873  12.7932  12.9083  13.0667  13.2104
    13.3838  13.5620  14.0226  14.1946  14.3508  14.6271  15.1380  15.1831
    15.4511  16.3236  16.9780  17.7505  19.6373  20.6305  20.9440  21.7752
    22.6554  23.4140  24.1163  24.8206  27.9245  28.3129  29.1652  29.7973
    30.3808  30.6399  31.8531  32.6403  40.2916  40.4781  42.1906  42.4166
    45.0831  45.3015  47.1238  47.3090  49.6042  49.7796  51.5373  52.0761
    54.5622  54.7541  55.5782  55.6935  56.3899  56.5154  56.8844  57.4959
    60.9455  61.0038  61.6651  62.0763  63.9718  64.3065  65.0933  65.5337
    68.5934  68.8386  70.3224  70.5991  71.4903  71.7256  72.2536  72.6276
    75.7499  76.0743  76.1551  76.4362  77.4765  77.6326  77.8925  78.2566
    79.7759  80.1363  80.6796  80.8065  81.7130  82.0437  82.9415  83.1584
    84.0696  84.2876

     occupation numbers 
     1.0000   1.0000   1.0000   1.0000   1.0000   1.0000   1.0000   1.0000
     1.0000   1.0000   1.0000   1.0000   1.0000   1.0000   1.0000   1.0000
     1.0000   1.0000   1.0000   1.0000   1.0000   1.0000   1.0000   1.0000
     1.0000  -0.0007  -0.0000  -0.0000  -0.0000  -0.0000  -0.0000  -0.0000
    -0.0000  -0.0000  -0.0000  -0.0000  -0.0000  -0.0000  -0.0000  -0.0000
    -0.0000  -0.0000  -0.0000  -0.0000  -0.0000  -0.0000  -0.0000  -0.0000
    -0.0000  -0.0000  -0.0000  -0.0000  -0.0000  -0.0000  -0.0000  -0.0000
    -0.0000  -0.0000  -0.0000  -0.0000  -0.0000  -0.0000  -0.0000  -0.0000
    -0.0000  -0.0000  -0.0000  -0.0000  -0.0000  -0.0000  -0.0000  -0.0000
    -0.0000  -0.0000  -0.0000  -0.0000  -0.0000  -0.0000  -0.0000  -0.0000
    -0.0000  -0.0000  -0.0000  -0.0000  -0.0000  -0.0000  -0.0000  -0.0000
    -0.0000  -0.0000  -0.0000  -0.0000  -0.0000  -0.0000  -0.0000  -0.0000
    -0.0000  -0.0000

          k = 0.4444 0.4444 0.0000 (  1320 PWs)   bands (ev):

   -72.5380 -69.3180 -39.2956 -38.9046 -38.1370 -35.8746 -35.3295 -35.0486
    10.7242  11.1704  11.5291  11.5377  11.8875  12.0980  12.6625  12.6982
    15.0869  15.1482  15.2064  15.4084  15.4983  15.6513  16.0104  16.5501
    17.2746  17.3832  17.5218  17.6118  17.7621  18.0219  18.9101  19.3945
    25.2576  26.2295  26.3364  27.1617  29.3113  29.3441  29.9005  30.1659
    30.6657  30.7333  30.9589  31.3484  35.2423  35.7768  36.2200  36.7043
    38.5333  38.7601  40.3637  41.1281  58.1221  58.2450  59.2803  59.4829
    62.0035  62.1388  62.7202  62.7426  63.4590  63.6075  63.6524  63.6820
    64.8281  65.0354  65.0587  65.1050  66.5020  66.6858  68.8965  69.0489
    69.0704  69.1334  69.1687  69.2167  69.6717  69.8334  70.2016  70.2661
    70.4973  71.6840  72.2690  72.4852  72.5622  72.6141  73.2866  73.3764
    73.5637  73.8391  74.1269  74.5089  74.6917  74.7058  76.4792  77.0150
    78.3693  78.6427

     occupation numbers 
     1.0000   1.0000   1.0000   1.0000   1.0000   1.0000   1.0000   1.0000
     1.0000   1.0000   1.0000   1.0000   1.0000   1.0000   1.0000   1.0000
     1.0000   1.0000   1.0000   1.0000   1.0000   1.0024   0.2536  -0.0000
    -0.0000  -0.0000  -0.0000  -0.0000  -0.0000  -0.0000  -0.0000  -0.0000
    -0.0000  -0.0000  -0.0000  -0.0000  -0.0000  -0.0000  -0.0000  -0.0000
    -0.0000  -0.0000  -0.0000  -0.0000  -0.0000  -0.0000  -0.0000  -0.0000
    -0.0000  -0.0000  -0.0000  -0.0000  -0.0000  -0.0000  -0.0000  -0.0000
    -0.0000  -0.0000  -0.0000  -0.0000  -0.0000  -0.0000  -0.0000  -0.0000
    -0.0000  -0.0000  -0.0000  -0.0000  -0.0000  -0.0000  -0.0000  -0.0000
    -0.0000  -0.0000  -0.0000  -0.0000  -0.0000  -0.0000  -0.0000  -0.0000
    -0.0000  -0.0000  -0.0000  -0.0000  -0.0000  -0.0000  -0.0000  -0.0000
    -0.0000  -0.0000  -0.0000  -0.0000  -0.0000  -0.0000  -0.0000  -0.0000
    -0.0000  -0.0000

          k = 0.4444 0.4444 0.1000 (  1315 PWs)   bands (ev):

   -72.5379 -69.3180 -39.2956 -38.9050 -38.1370 -35.8746 -35.3300 -35.0485
    10.8500  11.3210  11.6230  11.6299  12.0147  12.2720  12.7466  12.7840
    14.7594  14.7921  15.0109  15.0933  15.3485  15.7261  15.8643  16.2206
    16.3963  16.6982  17.6043  18.0812  18.3625  19.0514  19.5651  20.1147
    25.2922  26.2179  26.4070  27.1407  27.4320  27.7906  29.3718  29.6887
    29.8149  29.9824  31.0834  31.6250  36.4271  36.8081  36.8658  37.2238
    39.9930  40.2018  41.8835  42.6011  56.0650  56.1984  56.6048  56.7364
    59.7074  59.7264  61.8733  61.9447  62.7568  62.9058  63.3834  63.4030
    63.9857  64.6117  64.8772  65.2202  68.2894  68.4286  68.8864  68.9405
    69.0364  69.1459  69.6176  69.7997  70.4105  70.4607  70.8611  71.2091
    71.3088  71.7160  72.0198  72.2937  72.4974  72.5248  73.6363  74.1915
    74.6077  74.9589  76.1003  76.1567  76.7359  77.0723  77.3608  78.0708
    78.5416  78.6078

     occupation numbers 
     1.0000   1.0000   1.0000   1.0000   1.0000   1.0000   1.0000   1.0000
     1.0000   1.0000   1.0000   1.0000   1.0000   1.0000   1.0000   1.0000
     1.0000   1.0000   1.0000   1.0000   1.0000   1.0151   0.9814  -0.0125
    -0.0000  -0.0000  -0.0000  -0.0000  -0.0000  -0.0000  -0.0000  -0.0000
    -0.0000  -0.0000  -0.0000  -0.0000  -0.0000  -0.0000  -0.0000  -0.0000
    -0.0000  -0.0000  -0.0000  -0.0000  -0.0000  -0.0000  -0.0000  -0.0000
    -0.0000  -0.0000  -0.0000  -0.0000  -0.0000  -0.0000  -0.0000  -0.0000
    -0.0000  -0.0000  -0.0000  -0.0000  -0.0000  -0.0000  -0.0000  -0.0000
    -0.0000  -0.0000  -0.0000  -0.0000  -0.0000  -0.0000  -0.0000  -0.0000
    -0.0000  -0.0000  -0.0000  -0.0000  -0.0000  -0.0000  -0.0000  -0.0000
    -0.0000  -0.0000  -0.0000  -0.0000  -0.0000  -0.0000  -0.0000  -0.0000
    -0.0000  -0.0000  -0.0000  -0.0000  -0.0000  -0.0000  -0.0000  -0.0000
    -0.0000  -0.0000

          k = 0.4444 0.4444 0.2000 (  1326 PWs)   bands (ev):

   -72.5379 -69.3179 -39.2957 -38.9068 -38.1371 -35.8749 -35.3323 -35.0486
    11.1713  11.7168  11.8968  11.9070  12.3221  12.7570  12.9862  13.0362
    13.8562  13.9368  14.6936  14.7651  15.1823  15.2000  15.3275  15.7559
    15.8834  16.3500  17.4059  18.1789  19.7853  20.5663  21.0391  21.6536
    24.9050  25.5384  25.8132  26.3634  26.6973  27.1710  27.4062  27.6630
    28.4380  28.8517  30.2802  30.9618  38.6791  38.9844  39.8343  40.1260
    43.0752  43.2469  45.0511  45.7121  51.3377  51.4890  52.0843  52.2019
    57.6309  57.6795  59.2395  59.8125  59.8546  60.0494  62.7479  62.8203
    62.8697  62.9127  64.9994  65.2846  67.6234  67.8009  68.8989  68.9344
    69.2352  69.4213  69.8124  70.2124  70.3756  70.4179  71.5349  71.8226
    72.5121  72.9663  73.8922  74.3863  75.3261  75.4037  75.4961  75.6542
    76.3618  76.5696  77.6840  77.9340  78.1262  78.2265  79.2856  79.5243
    80.3357  80.7328

     occupation numbers 
     1.0000   1.0000   1.0000   1.0000   1.0000   1.0000   1.0000   1.0000
     1.0000   1.0000   1.0000   1.0000   1.0000   1.0000   1.0000   1.0000
     1.0000   1.0000   1.0000   1.0000   1.0000   1.0000   1.0000   1.0247
     0.9319  -0.0003  -0.0000  -0.0000  -0.0000  -0.0000  -0.0000  -0.0000
    -0.0000  -0.0000  -0.0000  -0.0000  -0.0000  -0.0000  -0.0000  -0.0000
    -0.0000  -0.0000  -0.0000  -0.0000  -0.0000  -0.0000  -0.0000  -0.0000
    -0.0000  -0.0000  -0.0000  -0.0000  -0.0000  -0.0000  -0.0000  -0.0000
    -0.0000  -0.0000  -0.0000  -0.0000  -0.0000  -0.0000  -0.0000  -0.0000
    -0.0000  -0.0000  -0.0000  -0.0000  -0.0000  -0.0000  -0.0000  -0.0000
    -0.0000  -0.0000  -0.0000  -0.0000  -0.0000  -0.0000  -0.0000  -0.0000
    -0.0000  -0.0000  -0.0000  -0.0000  -0.0000  -0.0000  -0.0000  -0.0000
    -0.0000  -0.0000  -0.0000  -0.0000  -0.0000  -0.0000  -0.0000  -0.0000
    -0.0000  -0.0000

          k = 0.4444 0.4444 0.3000 (  1332 PWs)   bands (ev):

   -72.5379 -69.3179 -39.2960 -38.9078 -38.1373 -35.8752 -35.3336 -35.0489
    11.4922  12.1532  12.2895  12.3517  12.6012  13.0584  13.1518  13.2870
    13.3765  13.4017  14.3128  14.3984  14.4708  14.5125  15.3037  15.3134
    15.7621  16.2936  17.2071  18.2016  21.3986  22.1549  22.8783  23.1473
    23.4967  23.8157  24.9591  25.5244  26.0130  26.3506  26.8116  27.6215
    27.7080  28.0646  29.1176  30.0646  42.1200  42.3231  43.4411  43.6402
    45.5296  45.7347  47.5787  47.6791  47.7405  47.7934  48.8911  49.5138
    53.1945  53.2504  54.9573  55.8721  60.5960  60.6626  61.8311  61.9005
    63.5816  63.8069  64.8049  64.9386  67.7259  67.7528  68.2415  68.3898
    68.4833  68.5507  69.1269  69.7504  70.7909  70.9689  71.2782  71.5538
    72.7126  73.1622  73.7192  74.2609  75.0687  75.1747  75.9282  76.6432
    77.9494  78.3559  79.2956  79.8929  82.1036  82.3740  82.8515  82.9800
    83.2763  83.3498

     occupation numbers 
     1.0000   1.0000   1.0000   1.0000   1.0000   1.0000   1.0000   1.0000
     1.0000   1.0000   1.0000   1.0000   1.0000   1.0000   1.0000   1.0000
     1.0000   1.0000   1.0000   1.0000   1.0000   1.0000   1.0000   1.0000
     1.0268  -0.0019  -0.0000  -0.0000  -0.0000  -0.0000  -0.0000  -0.0000
    -0.0000  -0.0000  -0.0000  -0.0000  -0.0000  -0.0000  -0.0000  -0.0000
    -0.0000  -0.0000  -0.0000  -0.0000  -0.0000  -0.0000  -0.0000  -0.0000
    -0.0000  -0.0000  -0.0000  -0.0000  -0.0000  -0.0000  -0.0000  -0.0000
    -0.0000  -0.0000  -0.0000  -0.0000  -0.0000  -0.0000  -0.0000  -0.0000
    -0.0000  -0.0000  -0.0000  -0.0000  -0.0000  -0.0000  -0.0000  -0.0000
    -0.0000  -0.0000  -0.0000  -0.0000  -0.0000  -0.0000  -0.0000  -0.0000
    -0.0000  -0.0000  -0.0000  -0.0000  -0.0000  -0.0000  -0.0000  -0.0000
    -0.0000  -0.0000  -0.0000  -0.0000  -0.0000  -0.0000  -0.0000  -0.0000
    -0.0000  -0.0000

     the Fermi energy is    15.9687 ev
     (compare with:    15.9314 eV, computed in scf)

     Writing all to output data dir ./work/pwscf.save/
 
     init_run     :      0.29s CPU      0.32s WALL (       1 calls)
     electrons    :     49.60s CPU     51.29s WALL (       1 calls)

     Called by init_run:
     wfcinit      :      0.00s CPU      0.01s WALL (       1 calls)
     wfcinit:atom :      0.00s CPU      0.00s WALL (      60 calls)
     wfcinit:wfcr :      1.32s CPU      1.40s WALL (      60 calls)
     potinit      :      0.01s CPU      0.02s WALL (       1 calls)
     hinit0       :      0.14s CPU      0.15s WALL (       1 calls)

     Called by electrons:
     c_bands      :     49.59s CPU     51.28s WALL (       1 calls)
     v_of_rho     :      0.01s CPU      0.01s WALL (       1 calls)
     v_h          :      0.00s CPU      0.00s WALL (       1 calls)
     v_xc         :      0.01s CPU      0.01s WALL (       1 calls)
     newd         :      0.13s CPU      0.14s WALL (       1 calls)

     Called by c_bands:
     init_us_2    :      0.00s CPU      0.00s WALL (      60 calls)
     init_us_2:cp :      0.00s CPU      0.00s WALL (      60 calls)
     cegterg      :     48.16s CPU     49.57s WALL (     127 calls)

     Called by sum_band:

     Called by *egterg:
     cdiaghg      :     24.42s CPU     24.46s WALL (    2063 calls)
     cegterg:over :      2.26s CPU      2.36s WALL (    2003 calls)
     cegterg:upda :      0.69s CPU      0.69s WALL (    2003 calls)
     cegterg:last :      1.93s CPU      1.94s WALL (    1051 calls)
     h_psi        :     17.69s CPU     19.02s WALL (    2190 calls)
     s_psi        :      1.45s CPU      1.46s WALL (    2190 calls)
     g_psi        :      0.04s CPU      0.04s WALL (    2003 calls)

     Called by h_psi:
     h_psi:calbec :      0.64s CPU      0.69s WALL (    2190 calls)
     vloc_psi     :     15.59s CPU     16.82s WALL (    2190 calls)
     add_vuspsi   :      1.42s CPU      1.45s WALL (    2190 calls)

     General routines
     calbec       :      0.63s CPU      0.69s WALL (    2190 calls)
     fft          :      0.01s CPU      0.01s WALL (      31 calls)
     ffts         :      0.00s CPU      0.00s WALL (       4 calls)
     fftw         :     13.48s CPU     14.54s WALL (  426312 calls)
     interpolate  :      0.00s CPU      0.00s WALL (       4 calls)
 
     Parallel routines
 
     PWSCF        :     51.73s CPU     56.10s WALL

 
   This run was terminated on:  21:40:26  11Jul2023            

=------------------------------------------------------------------------------=
   JOB DONE.
=------------------------------------------------------------------------------=
