 
             +---------------------------------------------------+
             |                                                   |
             |                   WANNIER90                       |
             |                                                   |
             +---------------------------------------------------+
             |                                                   |
             |        Welcome to the Maximally-Localized         |
             |        Generalized Wannier Functions code         |
             |            http://www.wannier.org                 |
             |                                                   |
             |                                                   |
             |  Wannier90 Developer Group:                       |
             |    Giovanni Pizzi    (EPFL)                       |
             |    Valerio Vitale    (Cambridge)                  |
             |    David Vanderbilt  (Rutgers University)         |
             |    Nicola Marzari    (EPFL)                       |
             |    Ivo Souza         (Universidad del Pais Vasco) |
             |    Arash A. Mostofi  (Imperial College London)    |
             |    Jonathan R. Yates (University of Oxford)       |
             |                                                   |
             |  For the full list of Wannier90 3.x authors,      |
             |  please check the code documentation and the      |
             |  README on the GitHub page of the code            |
             |                                                   |
             |                                                   |
             |  Please cite                                      |
             |                                                   |
             |  [ref] "Wannier90 as a community code:            |
             |        new features and applications",            |
             |        G. Pizzi et al., J. Phys. Cond. Matt. 32,  |
             |        165902 (2020).                             |
             |        http://doi.org/10.1088/1361-648X/ab51ff    |
             |                                                   |
             |  in any publications arising from the use of      |
             |  this code. For the method please cite            |
             |                                                   |
             |  [ref] "Maximally Localized Generalised Wannier   |
             |         Functions for Composite Energy Bands"     |
             |         N. Marzari and D. Vanderbilt              |
             |         Phys. Rev. B 56 12847 (1997)              |
             |                                                   |
             |  [ref] "Maximally Localized Wannier Functions     |
             |         for Entangled Energy Bands"               |
             |         I. Souza, N. Marzari and D. Vanderbilt    |
             |         Phys. Rev. B 65 035109 (2001)             |
             |                                                   |
             |                                                   |
             | Copyright (c) 1996-2020                           |
             |        The Wannier90 Developer Group and          |
             |        individual contributors                    |
             |                                                   |
             |      Release: 3.1.0        5th March    2020      |
             |                                                   |
             | This program is free software; you can            |
             | redistribute it and/or modify it under the terms  |
             | of the GNU General Public License as published by |
             | the Free Software Foundation; either version 2 of |
             | the License, or (at your option) any later version|
             |                                                   |
             | This program is distributed in the hope that it   |
             | will be useful, but WITHOUT ANY WARRANTY; without |
             | even the implied warranty of MERCHANTABILITY or   |
             | FITNESS FOR A PARTICULAR PURPOSE. See the GNU     |
             | General Public License for more details.          |
             |                                                   |
             | You should have received a copy of the GNU General|
             | Public License along with this program; if not,   |
             | write to the Free Software Foundation, Inc.,      |
             | 675 Mass Ave, Cambridge, MA 02139, USA.           |
             |                                                   |
             +---------------------------------------------------+
             |    Execution started on 11Jul2023 at 21:46:10     |
             +---------------------------------------------------+
 
 ******************************************************************************
 * -> Using CODATA 2006 constant values                                       *
 *    (http://physics.nist.gov/cuu/Constants/index.html)                      *
 * -> Using Bohr value from CODATA                                            *
 ******************************************************************************
 

 Running in parallel on  22 CPUs

 
                                    ------
                                    SYSTEM
                                    ------
 
                              Lattice Vectors (Ang)
                    a_1     2.506611   0.000000   0.000000
                    a_2     0.000000   2.506611   0.000000
                    a_3     0.000000   0.000000   3.581316
 
                   Unit Cell Volume:      22.50176  (Ang^3)
 
                        Reciprocal-Space Vectors (Ang^-1)
                    b_1     2.506646   0.000000   0.000000
                    b_2     0.000000   2.506646   0.000000
                    b_3     0.000000   0.000000   1.754435
  
 *----------------------------------------------------------------------------*
 |   Site       Fractional Coordinate          Cartesian Coordinate (Ang)     |
 +----------------------------------------------------------------------------+
 | Fe   1   0.00000   0.00000   0.00000   |    0.00000   0.00000   0.00000    |
 | Ni   1   0.50000   0.50000   0.50000   |    1.25331   1.25331   1.79066    |
 *----------------------------------------------------------------------------*
                                ------------
                                K-POINT GRID
                                ------------
  
             Grid size =  9 x  9 x  7      Total points =  567
  
  
 *---------------------------------- MAIN ------------------------------------*
 |  Number of Wannier Functions               :                36             |
 |  Number of Objective Wannier Functions     :                36             |
 |  Number of input Bloch states              :                90             |
 |  Output verbosity (1=low, 5=high)          :                 1             |
 |  Timing Level (1=low, 5=high)              :                 1             |
 |  Optimisation (0=memory, 3=speed)          :                 3             |
 |  Length Unit                               :               Ang             |
 |  Post-processing setup (write *.nnkp)      :                 F             |
 |  Using Gamma-only branch of algorithms     :                 F             |
 *----------------------------------------------------------------------------*
 *------------------------------- WANNIERISE ---------------------------------*
 |  Total number of iterations                :                 0             |
 |  Number of CG steps before reset           :                 5             |
 |  Trial step length for line search         :             2.000             |
 |  Convergence tolerence                     :         0.100E-09             |
 |  Convergence window                        :                -1             |
 |  Iterations between writing output         :                 1             |
 |  Iterations between backing up to disk     :               100             |
 |  Write r^2_nm to file                      :                 F             |
 |  Write xyz WF centres to file              :                 F             |
 |  Write on-site energies <0n|H|0n> to file  :                 F             |
 |  Use guiding centre to control phases      :                 F             |
 |  Use phases for initial projections        :                 F             |
 *----------------------------------------------------------------------------*
 *------------------------------- DISENTANGLE --------------------------------*
 |  Using band disentanglement                :                 T             |
 |  Total number of iterations                :               200             |
 |  Mixing ratio                              :             0.500             |
 |  Convergence tolerence                     :         1.000E-10             |
 |  Convergence window                        :                 3             |
 *----------------------------------------------------------------------------*
 *-------------------------------- PLOTTING ----------------------------------*
 |  Plotting interpolated bandstructure       :                 T             |
 |   Number of K-path sections                :                 9             |
 |   Divisions along first K-path section     :               100             |
 |   Output format                            :           gnuplot             |
 |   Output mode                              :               s-k             |
 *----------------------------------------------------------------------------*
 |   K-space path sections:                                                   |
 |    From: G       0.000  0.000  0.000     To: X       0.000  0.500  0.000   |
 |    From: X       0.000  0.500  0.000     To: M       0.500  0.500  0.000   |
 |    From: M       0.500  0.500  0.000     To: G       0.000  0.000  0.000   |
 |    From: G       0.000  0.000  0.000     To: Z       0.000  0.000  0.500   |
 |    From: Z       0.000  0.000  0.500     To: R       0.000  0.500  0.500   |
 |    From: R       0.000  0.500  0.500     To: A       0.500  0.500  0.500   |
 |    From: A       0.500  0.500  0.500     To: Z       0.000  0.000  0.500   |
 |    From: X       0.000  0.500  0.000     To: R       0.000  0.500  0.500   |
 |    From: M       0.500  0.500  0.000     To: A       0.500  0.500  0.500   |
 *----------------------------------------------------------------------------*
 |  Plotting Hamiltonian in WF basis          :                 T             |
 *----------------------------------------------------------------------------*
 Time to read parameters        0.061 (sec)

 *---------------------------------- K-MESH ----------------------------------*
 +----------------------------------------------------------------------------+
 |                    Distance to Nearest-Neighbour Shells                    |
 |                    ------------------------------------                    |
 |          Shell             Distance (Ang^-1)          Multiplicity         |
 |          -----             -----------------          ------------         |
 |             1                   0.250634                      2            |
 |             2                   0.278516                      4            |
 |             3                   0.374684                      8            |
 |             4                   0.393881                      4            |
 |             5                   0.466862                      8            |
 |             6                   0.501267                      2            |
 |             7                   0.557032                      4            |
 |             8                   0.573446                      8            |
 |             9                   0.610821                      8            |
 |            10                   0.622781                      8            |
 |            11                   0.637504                      8            |
 |            12                   0.671322                     16            |
 |            13                   0.749369                      8            |
 |            14                   0.751901                      2            |
 |            15                   0.787763                      4            |
 |            16                   0.799453                     16            |
 |            17                   0.801827                      8            |
 |            18                   0.826672                      8            |
 |            19                   0.835549                      4            |
 |            20                   0.848821                      8            |
 |            21                   0.872329                      8            |
 |            22                   0.880745                      8            |
 |            23                   0.915713                     16            |
 |            24                   0.933723                      8            |
 |            25                   0.935756                      8            |
 |            26                   0.974377                      8            |
 |            27                   0.976325                     16            |
 |            28                   1.002534                      2            |
 |            29                   1.004204                      8            |
 |            30                   1.013401                     16            |
 |            31                   1.035009                     16            |
 |            32                   1.040503                      8            |
 |            33                   1.077134                      8            |
 |            34                   1.089002                      8            |
 |            35                   1.114065                      4            |
 |            36                   1.122361                     16            |
 +----------------------------------------------------------------------------+
 | The b-vectors are chosen automatically                                     |
 | The following shells are used:   1,  2                                     |
 +----------------------------------------------------------------------------+
 |                        Shell   # Nearest-Neighbours                        |
 |                        -----   --------------------                        |
 |                          1               2                                 |
 |                          2               4                                 |
 +----------------------------------------------------------------------------+
 | Completeness relation is fully satisfied [Eq. (B1), PRB 56, 12847 (1997)]  |
 +----------------------------------------------------------------------------+
 |                  b_k Vectors (Ang^-1) and Weights (Ang^2)                  |
 |                  ----------------------------------------                  |
 |            No.         b_k(x)      b_k(y)      b_k(z)        w_b           |
 |            ---        --------------------------------     --------        |
 |             1         0.000000    0.000000    0.250634     7.959607        |
 |             2         0.000000    0.000000   -0.250634     7.959607        |
 |             3         0.000000    0.278516    0.000000     6.445686        |
 |             4         0.000000   -0.278516    0.000000     6.445686        |
 |             5         0.278516    0.000000    0.000000     6.445686        |
 |             6        -0.278516    0.000000    0.000000     6.445686        |
 +----------------------------------------------------------------------------+
 |                           b_k Directions (Ang^-1)                          |
 |                           -----------------------                          |
 |            No.           x           y           z                         |
 |            ---        --------------------------------                     |
 |             1         0.000000    0.000000    0.250634                     |
 |             2         0.000000    0.278516    0.000000                     |
 |             3         0.278516    0.000000    0.000000                     |
 +----------------------------------------------------------------------------+
  
 Time to get kmesh              0.274 (sec)
 *============================================================================*
 |                              MEMORY ESTIMATE                               |
 |         Maximum RAM allocated during each phase of the calculation         |
 *============================================================================*
 |                        Disentanglement          629.67 Mb                  |
 |                            Wannierise:          212.83 Mb                  |
 |                          plot_wannier:          212.83 Mb                  |
 *----------------------------------------------------------------------------*
  
 Starting a new Wannier90 calculation ...


 Reading overlaps from pwscf.mmn    : Mmn created by mmn.py

 Reading projections from pwscf.amn : Amn created by amn.py

 Time to read overlaps         18.570 (sec)

 *------------------------------- DISENTANGLE --------------------------------*
 +----------------------------------------------------------------------------+
 |                              Energy  Windows                               |
 |                              ---------------                               |
 |                   Outer:    7.00462  to   87.58247  (eV)                   |
 |                   Inner: **********  to   20.96860  (eV)                   |
 +----------------------------------------------------------------------------+
   Number of target bands to extract:   36

                   Unitarised projection of Wannier functions                  
                   ------------------------------------------                  
   A_mn = <psi_m|g_n> --> S = A.A^+ --> U = S^-1/2.A
   In dis_project... done
   Using an inner window (linner = T)
   In dis_proj_froz... done

                   Extraction of optimally-connected subspace                  
                   ------------------------------------------                  
 +---------------------------------------------------------------------+<-- DIS
 |  Iter     Omega_I(i-1)      Omega_I(i)      Delta (frac.)    Time   |<-- DIS
 +---------------------------------------------------------------------+<-- DIS
       1      21.74449900      20.42318907       6.470E-02      0.00    <-- DIS
       2      20.92507822      20.01407317       4.552E-02      0.12    <-- DIS
       3      20.41565832      19.71673993       3.545E-02      0.23    <-- DIS
       4      20.02251878      19.48020681       2.784E-02      0.35    <-- DIS
       5      19.71548663      19.28580226       2.228E-02      0.47    <-- DIS
       6      19.47068035      19.12249643       1.821E-02      0.58    <-- DIS
       7      19.27117999      18.98304759       1.518E-02      0.70    <-- DIS
       8      19.10529358      18.86244367       1.287E-02      0.82    <-- DIS
       9      18.96493343      18.75707547       1.108E-02      0.94    <-- DIS
      10      18.84443060      18.66425738       9.653E-03      1.07    <-- DIS
      11      18.73973203      18.58193511       8.492E-03      1.18    <-- DIS
      12      18.64787202      18.50850033       7.530E-03      1.30    <-- DIS
      13      18.56662750      18.44266885       6.721E-03      1.42    <-- DIS
      14      18.49429238      18.38339827       6.032E-03      1.53    <-- DIS
      15      18.42952853      18.32983041       5.439E-03      1.65    <-- DIS
      16      18.37126574      18.28125034       4.924E-03      1.77    <-- DIS
      17      18.31863346      18.23705634       4.473E-03      1.88    <-- DIS
      18      18.27091315      18.19673755       4.076E-03      2.01    <-- DIS
      19      18.22750437      18.15985693       3.725E-03      2.13    <-- DIS
      20      18.18790004      18.12603810       3.413E-03      2.25    <-- DIS
      21      18.15166810      18.09495511       3.134E-03      2.36    <-- DIS
      22      18.11843763      18.06632417       2.885E-03      2.48    <-- DIS
      23      18.08788805      18.03989714       2.660E-03      2.60    <-- DIS
      24      18.05974077      18.01545612       2.458E-03      2.71    <-- DIS
      25      18.03375245      17.99280910       2.276E-03      2.83    <-- DIS
      26      18.00970963      17.97178631       2.110E-03      2.95    <-- DIS
      27      17.98742432      17.95223722       1.960E-03      3.06    <-- DIS
      28      17.96673042      17.93402795       1.823E-03      3.18    <-- DIS
      29      17.94748065      17.91703915       1.699E-03      3.30    <-- DIS
      30      17.92954409      17.90116419       1.585E-03      3.41    <-- DIS
      31      17.91280405      17.88630755       1.481E-03      3.53    <-- DIS
      32      17.89715625      17.87238352       1.386E-03      3.65    <-- DIS
      33      17.88250731      17.85931503       1.299E-03      3.76    <-- DIS
      34      17.86877342      17.84703266       1.218E-03      3.88    <-- DIS
      35      17.85587922      17.83547376       1.144E-03      4.00    <-- DIS
      36      17.84375682      17.82458170       1.076E-03      4.11    <-- DIS
      37      17.83234496      17.81430521       1.013E-03      4.23    <-- DIS
      38      17.82158823      17.80459780       9.543E-04      4.35    <-- DIS
      39      17.81143648      17.79541724       9.002E-04      4.46    <-- DIS
      40      17.80184421      17.78672515       8.500E-04      4.58    <-- DIS
      41      17.79277011      17.77848654       8.034E-04      4.70    <-- DIS
      42      17.78417657      17.77066952       7.601E-04      4.81    <-- DIS
      43      17.77602936      17.76324496       7.197E-04      4.93    <-- DIS
      44      17.76829725      17.75618622       6.821E-04      5.05    <-- DIS
      45      17.76095168      17.74946891       6.469E-04      5.16    <-- DIS
      46      17.75396657      17.74307067       6.141E-04      5.28    <-- DIS
      47      17.74731800      17.73697097       5.834E-04      5.40    <-- DIS
      48      17.74098404      17.73115094       5.546E-04      5.51    <-- DIS
      49      17.73494456      17.72559320       5.276E-04      5.63    <-- DIS
      50      17.72918106      17.72028177       5.022E-04      5.75    <-- DIS
      51      17.72367648      17.71520188       4.784E-04      5.86    <-- DIS
      52      17.71841511      17.71033989       4.560E-04      5.98    <-- DIS
      53      17.71338247      17.70568320       4.348E-04      6.10    <-- DIS
      54      17.70856515      17.70122013       4.149E-04      6.21    <-- DIS
      55      17.70395077      17.69693987       3.962E-04      6.33    <-- DIS
      56      17.69952786      17.69283237       3.784E-04      6.45    <-- DIS
      57      17.69528577      17.68888831       3.617E-04      6.56    <-- DIS
      58      17.69121463      17.68509902       3.458E-04      6.68    <-- DIS
      59      17.68730525      17.68145642       3.308E-04      6.80    <-- DIS
      60      17.68354911      17.67795298       3.166E-04      6.91    <-- DIS
      61      17.67993824      17.67458168       3.031E-04      7.03    <-- DIS
      62      17.67646522      17.67133595       2.903E-04      7.15    <-- DIS
      63      17.67312314      17.66820967       2.781E-04      7.27    <-- DIS
      64      17.66990553      17.66519707       2.665E-04      7.38    <-- DIS
      65      17.66680632      17.66229279       2.555E-04      7.50    <-- DIS
      66      17.66381986      17.65949177       2.451E-04      7.62    <-- DIS
      67      17.66094083      17.65678928       2.351E-04      7.73    <-- DIS
      68      17.65816424      17.65418084       2.256E-04      7.85    <-- DIS
      69      17.65548540      17.65166228       2.166E-04      7.97    <-- DIS
      70      17.65289992      17.64922964       2.080E-04      8.08    <-- DIS
      71      17.65040364      17.64687920       1.997E-04      8.20    <-- DIS
      72      17.64799266      17.64460745       1.919E-04      8.32    <-- DIS
      73      17.64566331      17.64241107       1.843E-04      8.43    <-- DIS
      74      17.64341209      17.64028692       1.772E-04      8.55    <-- DIS
      75      17.64123573      17.63823204       1.703E-04      8.67    <-- DIS
      76      17.63913113      17.63624363       1.637E-04      8.78    <-- DIS
      77      17.63709533      17.63431901       1.574E-04      8.90    <-- DIS
      78      17.63512557      17.63245567       1.514E-04      9.02    <-- DIS
      79      17.63321919      17.63065121       1.457E-04      9.13    <-- DIS
      80      17.63137371      17.62890336       1.401E-04      9.25    <-- DIS
      81      17.62958673      17.62720994       1.348E-04      9.37    <-- DIS
      82      17.62785601      17.62556891       1.298E-04      9.48    <-- DIS
      83      17.62617939      17.62397830       1.249E-04      9.60    <-- DIS
      84      17.62455483      17.62243624       1.202E-04      9.72    <-- DIS
      85      17.62298038      17.62094097       1.157E-04      9.83    <-- DIS
      86      17.62145420      17.61949077       1.114E-04      9.95    <-- DIS
      87      17.61997451      17.61808403       1.073E-04     10.07    <-- DIS
      88      17.61853962      17.61671920       1.033E-04     10.18    <-- DIS
      89      17.61714792      17.61539481       9.952E-05     10.30    <-- DIS
      90      17.61579788      17.61410943       9.586E-05     10.42    <-- DIS
      91      17.61448802      17.61286171       9.234E-05     10.53    <-- DIS
      92      17.61321694      17.61165036       8.895E-05     10.65    <-- DIS
      93      17.61198329      17.61047414       8.570E-05     10.77    <-- DIS
      94      17.61078577      17.60933185       8.257E-05     10.88    <-- DIS
      95      17.60962317      17.60822237       7.955E-05     11.00    <-- DIS
      96      17.60849428      17.60714458       7.666E-05     11.12    <-- DIS
      97      17.60739798      17.60609745       7.387E-05     11.24    <-- DIS
      98      17.60633317      17.60507996       7.118E-05     11.35    <-- DIS
      99      17.60529882      17.60409115       6.860E-05     11.47    <-- DIS
     100      17.60429391      17.60313008       6.611E-05     11.59    <-- DIS
     101      17.60331749      17.60219587       6.372E-05     11.70    <-- DIS
     102      17.60236862      17.60128764       6.141E-05     11.82    <-- DIS
     103      17.60144641      17.60040458       5.919E-05     11.94    <-- DIS
     104      17.60055002      17.59954589       5.705E-05     12.05    <-- DIS
     105      17.59967861      17.59871079       5.499E-05     12.17    <-- DIS
     106      17.59883138      17.59789856       5.301E-05     12.29    <-- DIS
     107      17.59800759      17.59710847       5.109E-05     12.41    <-- DIS
     108      17.59720648      17.59633985       4.925E-05     12.52    <-- DIS
     109      17.59642735      17.59559203       4.747E-05     12.64    <-- DIS
     110      17.59566952      17.59486438       4.576E-05     12.76    <-- DIS
     111      17.59493234      17.59415627       4.411E-05     12.87    <-- DIS
     112      17.59421515      17.59346712       4.252E-05     12.99    <-- DIS
     113      17.59351736      17.59279636       4.098E-05     13.11    <-- DIS
     114      17.59283836      17.59214342       3.950E-05     13.22    <-- DIS
     115      17.59217760      17.59150779       3.808E-05     13.34    <-- DIS
     116      17.59153451      17.59088893       3.670E-05     13.46    <-- DIS
     117      17.59090858      17.59028636       3.537E-05     13.58    <-- DIS
     118      17.59029928      17.58969960       3.409E-05     13.69    <-- DIS
     119      17.58970611      17.58912817       3.286E-05     13.81    <-- DIS
     120      17.58912861      17.58857163       3.167E-05     13.93    <-- DIS
     121      17.58856630      17.58802954       3.052E-05     14.04    <-- DIS
     122      17.58801874      17.58750149       2.941E-05     14.16    <-- DIS
     123      17.58748550      17.58698706       2.834E-05     14.28    <-- DIS
     124      17.58696615      17.58648587       2.731E-05     14.39    <-- DIS
     125      17.58646030      17.58599754       2.631E-05     14.51    <-- DIS
     126      17.58596755      17.58552168       2.535E-05     14.63    <-- DIS
     127      17.58548752      17.58505796       2.443E-05     14.75    <-- DIS
     128      17.58501985      17.58460602       2.353E-05     14.86    <-- DIS
     129      17.58456418      17.58416554       2.267E-05     14.98    <-- DIS
     130      17.58412017      17.58373617       2.184E-05     15.10    <-- DIS
     131      17.58368748      17.58331763       2.103E-05     15.21    <-- DIS
     132      17.58326580      17.58290959       2.026E-05     15.33    <-- DIS
     133      17.58285482      17.58251177       1.951E-05     15.45    <-- DIS
     134      17.58245422      17.58212388       1.879E-05     15.56    <-- DIS
     135      17.58206373      17.58174564       1.809E-05     15.68    <-- DIS
     136      17.58168305      17.58137680       1.742E-05     15.80    <-- DIS
     137      17.58131191      17.58101708       1.677E-05     15.91    <-- DIS
     138      17.58095005      17.58066624       1.614E-05     16.03    <-- DIS
     139      17.58059720      17.58032403       1.554E-05     16.15    <-- DIS
     140      17.58025312      17.57999023       1.495E-05     16.27    <-- DIS
     141      17.57991757      17.57966459       1.439E-05     16.38    <-- DIS
     142      17.57959032      17.57934689       1.385E-05     16.50    <-- DIS
     143      17.57927112      17.57903693       1.332E-05     16.62    <-- DIS
     144      17.57895977      17.57873449       1.282E-05     16.73    <-- DIS
     145      17.57865604      17.57843937       1.233E-05     16.85    <-- DIS
     146      17.57835974      17.57815137       1.185E-05     16.97    <-- DIS
     147      17.57807066      17.57787030       1.140E-05     17.08    <-- DIS
     148      17.57778861      17.57759597       1.096E-05     17.20    <-- DIS
     149      17.57751338      17.57732821       1.053E-05     17.32    <-- DIS
     150      17.57724481      17.57706685       1.012E-05     17.43    <-- DIS
     151      17.57698272      17.57681170       9.729E-06     17.55    <-- DIS
     152      17.57672692      17.57656262       9.348E-06     17.67    <-- DIS
     153      17.57647725      17.57631943       8.980E-06     17.78    <-- DIS
     154      17.57623356      17.57608198       8.624E-06     17.90    <-- DIS
     155      17.57599567      17.57585012       8.281E-06     18.02    <-- DIS
     156      17.57576344      17.57562371       7.950E-06     18.14    <-- DIS
     157      17.57553671      17.57540261       7.630E-06     18.25    <-- DIS
     158      17.57531535      17.57518666       7.322E-06     18.37    <-- DIS
     159      17.57509921      17.57497575       7.024E-06     18.49    <-- DIS
     160      17.57488815      17.57476974       6.737E-06     18.60    <-- DIS
     161      17.57468204      17.57456851       6.460E-06     18.72    <-- DIS
     162      17.57448076      17.57437192       6.193E-06     18.84    <-- DIS
     163      17.57428417      17.57417987       5.935E-06     18.95    <-- DIS
     164      17.57409216      17.57399224       5.686E-06     19.07    <-- DIS
     165      17.57390460      17.57380890       5.446E-06     19.19    <-- DIS
     166      17.57372139      17.57362976       5.214E-06     19.30    <-- DIS
     167      17.57354241      17.57345471       4.990E-06     19.42    <-- DIS
     168      17.57336755      17.57328364       4.775E-06     19.54    <-- DIS
     169      17.57319670      17.57311645       4.567E-06     19.65    <-- DIS
     170      17.57302977      17.57295305       4.366E-06     19.77    <-- DIS
     171      17.57286666      17.57279334       4.172E-06     19.89    <-- DIS
     172      17.57270726      17.57263722       3.986E-06     20.00    <-- DIS
     173      17.57255148      17.57248461       3.806E-06     20.12    <-- DIS
     174      17.57239924      17.57233541       3.632E-06     20.24    <-- DIS
     175      17.57225043      17.57218955       3.465E-06     20.35    <-- DIS
     176      17.57210499      17.57204694       3.303E-06     20.47    <-- DIS
     177      17.57196281      17.57190751       3.148E-06     20.59    <-- DIS
     178      17.57182383      17.57177116       2.997E-06     20.70    <-- DIS
     179      17.57168796      17.57163783       2.853E-06     20.82    <-- DIS
     180      17.57155511      17.57150744       2.713E-06     20.94    <-- DIS
     181      17.57142523      17.57137991       2.579E-06     21.05    <-- DIS
     182      17.57129823      17.57125519       2.449E-06     21.17    <-- DIS
     183      17.57117404      17.57113320       2.325E-06     21.29    <-- DIS
     184      17.57105260      17.57101387       2.204E-06     21.40    <-- DIS
     185      17.57093383      17.57089714       2.088E-06     21.52    <-- DIS
     186      17.57081768      17.57078295       1.977E-06     21.64    <-- DIS
     187      17.57070407      17.57067123       1.869E-06     21.75    <-- DIS
     188      17.57059294      17.57056192       1.766E-06     21.87    <-- DIS
     189      17.57048424      17.57045497       1.666E-06     21.99    <-- DIS
     190      17.57037790      17.57035033       1.570E-06     22.11    <-- DIS
     191      17.57027388      17.57024792       1.477E-06     22.22    <-- DIS
     192      17.57017210      17.57014771       1.388E-06     22.34    <-- DIS
     193      17.57007252      17.57004964       1.302E-06     22.46    <-- DIS
     194      17.56997509      17.56995365       1.220E-06     22.57    <-- DIS
     195      17.56987974      17.56985971       1.140E-06     22.69    <-- DIS
     196      17.56978645      17.56976775       1.064E-06     22.81    <-- DIS
     197      17.56969514      17.56967774       9.905E-07     22.92    <-- DIS
     198      17.56960579      17.56958963       9.198E-07     23.04    <-- DIS
     199      17.56951833      17.56950336       8.518E-07     23.16    <-- DIS
     200      17.56943273      17.56941891       7.864E-07     23.27    <-- DIS

     <<< Warning: Maximum number of disentanglement iterations reached >>>
          <<< Disentanglement convergence criteria not satisfied >>>

        Final Omega_I    17.56941891 (Ang^2)

 +----------------------------------------------------------------------------+

 Time to disentangle bands     27.211 (sec)

 done

 
 *------------------------------- WANNIERISE ---------------------------------*
 +--------------------------------------------------------------------+<-- CONV
 | Iter  Delta Spread     RMS Gradient      Spread (Ang^2)      Time  |<-- CONV
 +--------------------------------------------------------------------+<-- CONV
 
 ------------------------------------------------------------------------------
 Initial State
  WF centre and spread    1  (  0.000000,  0.000000,  0.000000 )     1.42503248
  WF centre and spread    2  ( -0.000000, -0.000000,  0.000000 )     1.42503248
  WF centre and spread    3  (  0.000000, -0.000000, -0.000000 )     1.40200623
  WF centre and spread    4  ( -0.000000,  0.000000, -0.000000 )     1.40200623
  WF centre and spread    5  ( -0.000000, -0.000000,  0.000000 )     1.36412571
  WF centre and spread    6  (  0.000000,  0.000000,  0.000000 )     1.36412571
  WF centre and spread    7  (  0.000000, -0.000000, -0.000000 )     1.36412571
  WF centre and spread    8  ( -0.000000,  0.000000, -0.000000 )     1.36412571
  WF centre and spread    9  ( -0.000000, -0.000000, -0.000000 )     0.48763766
  WF centre and spread   10  (  0.000000,  0.000000, -0.000000 )     0.48763766
  WF centre and spread   11  ( -0.000000, -0.000000, -0.000000 )     0.48342323
  WF centre and spread   12  (  0.000000,  0.000000, -0.000000 )     0.48342323
  WF centre and spread   13  ( -0.000000,  0.000000,  0.000000 )     0.48342324
  WF centre and spread   14  (  0.000000, -0.000000,  0.000000 )     0.48342324
  WF centre and spread   15  (  0.000000,  0.000000, -0.000000 )     0.47477019
  WF centre and spread   16  ( -0.000000, -0.000000, -0.000000 )     0.47477019
  WF centre and spread   17  ( -0.000000,  0.000000,  0.000000 )     0.49721768
  WF centre and spread   18  (  0.000000, -0.000000,  0.000000 )     0.49721768
  WF centre and spread   19  (  1.253306,  1.253306,  1.790658 )     1.31949150
  WF centre and spread   20  (  1.253306,  1.253306,  1.790658 )     1.31949150
  WF centre and spread   21  (  1.253306,  1.253305,  1.790658 )     1.26089073
  WF centre and spread   22  (  1.253306,  1.253306,  1.790658 )     1.26089073
  WF centre and spread   23  (  1.253306,  1.253306,  1.790658 )     1.26888495
  WF centre and spread   24  (  1.253306,  1.253305,  1.790658 )     1.26888495
  WF centre and spread   25  (  1.253306,  1.253305,  1.790658 )     1.26888495
  WF centre and spread   26  (  1.253306,  1.253306,  1.790658 )     1.26888495
  WF centre and spread   27  (  1.253306,  1.253306,  1.790658 )     0.41089455
  WF centre and spread   28  (  1.253306,  1.253306,  1.790658 )     0.41089455
  WF centre and spread   29  (  1.253306,  1.253306,  1.790658 )     0.40137129
  WF centre and spread   30  (  1.253306,  1.253306,  1.790658 )     0.40137129
  WF centre and spread   31  (  1.253306,  1.253306,  1.790658 )     0.40137129
  WF centre and spread   32  (  1.253306,  1.253306,  1.790658 )     0.40137129
  WF centre and spread   33  (  1.253306,  1.253306,  1.790658 )     0.40323607
  WF centre and spread   34  (  1.253306,  1.253306,  1.790658 )     0.40323607
  WF centre and spread   35  (  1.253306,  1.253306,  1.790658 )     0.40787256
  WF centre and spread   36  (  1.253306,  1.253306,  1.790658 )     0.40787256
  Sum of centres and spreads ( 22.559499, 22.559499, 32.231844 )    30.24932006
 
      0     0.302E+02     0.0000000000       30.2493200358      25.07  <-- CONV
        O_D=      0.0000025 O_OD=     12.6798986 O_TOT=     30.2493200 <-- SPRD
 ------------------------------------------------------------------------------
 Final State
  WF centre and spread    1  (  0.000000,  0.000000,  0.000000 )     1.42503248
  WF centre and spread    2  ( -0.000000, -0.000000,  0.000000 )     1.42503248
  WF centre and spread    3  (  0.000000, -0.000000, -0.000000 )     1.40200623
  WF centre and spread    4  ( -0.000000,  0.000000, -0.000000 )     1.40200623
  WF centre and spread    5  ( -0.000000, -0.000000,  0.000000 )     1.36412571
  WF centre and spread    6  (  0.000000,  0.000000,  0.000000 )     1.36412571
  WF centre and spread    7  (  0.000000, -0.000000, -0.000000 )     1.36412571
  WF centre and spread    8  ( -0.000000,  0.000000, -0.000000 )     1.36412571
  WF centre and spread    9  ( -0.000000, -0.000000, -0.000000 )     0.48763766
  WF centre and spread   10  (  0.000000,  0.000000, -0.000000 )     0.48763766
  WF centre and spread   11  ( -0.000000, -0.000000, -0.000000 )     0.48342323
  WF centre and spread   12  (  0.000000,  0.000000, -0.000000 )     0.48342323
  WF centre and spread   13  ( -0.000000,  0.000000,  0.000000 )     0.48342324
  WF centre and spread   14  (  0.000000, -0.000000,  0.000000 )     0.48342324
  WF centre and spread   15  (  0.000000,  0.000000, -0.000000 )     0.47477019
  WF centre and spread   16  ( -0.000000, -0.000000, -0.000000 )     0.47477019
  WF centre and spread   17  ( -0.000000,  0.000000,  0.000000 )     0.49721768
  WF centre and spread   18  (  0.000000, -0.000000,  0.000000 )     0.49721768
  WF centre and spread   19  (  1.253306,  1.253306,  1.790658 )     1.31949150
  WF centre and spread   20  (  1.253306,  1.253306,  1.790658 )     1.31949150
  WF centre and spread   21  (  1.253306,  1.253305,  1.790658 )     1.26089073
  WF centre and spread   22  (  1.253306,  1.253306,  1.790658 )     1.26089073
  WF centre and spread   23  (  1.253306,  1.253306,  1.790658 )     1.26888495
  WF centre and spread   24  (  1.253306,  1.253305,  1.790658 )     1.26888495
  WF centre and spread   25  (  1.253306,  1.253305,  1.790658 )     1.26888495
  WF centre and spread   26  (  1.253306,  1.253306,  1.790658 )     1.26888495
  WF centre and spread   27  (  1.253306,  1.253306,  1.790658 )     0.41089455
  WF centre and spread   28  (  1.253306,  1.253306,  1.790658 )     0.41089455
  WF centre and spread   29  (  1.253306,  1.253306,  1.790658 )     0.40137129
  WF centre and spread   30  (  1.253306,  1.253306,  1.790658 )     0.40137129
  WF centre and spread   31  (  1.253306,  1.253306,  1.790658 )     0.40137129
  WF centre and spread   32  (  1.253306,  1.253306,  1.790658 )     0.40137129
  WF centre and spread   33  (  1.253306,  1.253306,  1.790658 )     0.40323607
  WF centre and spread   34  (  1.253306,  1.253306,  1.790658 )     0.40323607
  WF centre and spread   35  (  1.253306,  1.253306,  1.790658 )     0.40787256
  WF centre and spread   36  (  1.253306,  1.253306,  1.790658 )     0.40787256
  Sum of centres and spreads ( 22.559499, 22.559499, 32.231844 )    30.24932006
 
         Spreads (Ang^2)       Omega I      =    17.569418913
        ================       Omega D      =     0.000002491
                               Omega OD     =    12.679898632
    Final Spread (Ang^2)       Omega Total  =    30.249320036
 ------------------------------------------------------------------------------
 Time for wannierise            0.132 (sec)

 done

 *---------------------------------------------------------------------------*
 |                               PLOTTING                                    |
 *---------------------------------------------------------------------------*
 
 
 Calculating interpolated band-structure
 
 Time to calculate interpolated band structure      34.924 (sec)
 
 Time for plotting            114.893 (sec)
 Total Execution Time         161.315 (sec)

 *===========================================================================*
 |                             TIMING INFORMATION                            |
 *===========================================================================*
 |    Tag                                                Ncalls      Time (s)|
 |---------------------------------------------------------------------------|
 |kmesh: get                                        :         1         0.274|
 |overlap: allocate                                 :         1         0.006|
 |overlap: read                                     :         1        18.563|
 |dis: main                                         :         1        27.211|
 |wann: main                                        :         1         0.132|
 |plot: main                                        :         1       114.893|
 *---------------------------------------------------------------------------*
 
 All done: wannier90 exiting
