File written on 11Jul2023 at 21:40:26 

calc_only_A  :  F

begin real_lattice
   2.5066110   0.0000000   0.0000000
   0.0000000   2.5066110   0.0000000
   0.0000000   0.0000000   3.5813160
end real_lattice

begin recip_lattice
   2.5066455   0.0000000   0.0000000
   0.0000000   2.5066455   0.0000000
   0.0000000   0.0000000   1.7544348
end recip_lattice

begin kpoints
   567
    0.00000000    0.00000000    0.00000000
    0.00000000    0.00000000    0.14285714
    0.00000000    0.00000000    0.28571429
    0.00000000    0.00000000    0.42857143
    0.00000000    0.00000000   -0.42857143
    0.00000000    0.00000000   -0.28571429
    0.00000000    0.00000000   -0.14285714
    0.00000000    0.11111111    0.00000000
    0.00000000    0.11111111    0.14285714
    0.00000000    0.11111111    0.28571429
    0.00000000    0.11111111    0.42857143
    0.00000000    0.11111111   -0.42857143
    0.00000000    0.11111111   -0.28571429
    0.00000000    0.11111111   -0.14285714
    0.00000000    0.22222222    0.00000000
    0.00000000    0.22222222    0.14285714
    0.00000000    0.22222222    0.28571429
    0.00000000    0.22222222    0.42857143
    0.00000000    0.22222222   -0.42857143
    0.00000000    0.22222222   -0.28571429
    0.00000000    0.22222222   -0.14285714
    0.00000000    0.33333333    0.00000000
    0.00000000    0.33333333    0.14285714
    0.00000000    0.33333333    0.28571429
    0.00000000    0.33333333    0.42857143
    0.00000000    0.33333333   -0.42857143
    0.00000000    0.33333333   -0.28571429
    0.00000000    0.33333333   -0.14285714
    0.00000000    0.44444444    0.00000000
    0.00000000    0.44444444    0.14285714
    0.00000000    0.44444444    0.28571429
    0.00000000    0.44444444    0.42857143
    0.00000000    0.44444444   -0.42857143
    0.00000000    0.44444444   -0.28571429
    0.00000000    0.44444444   -0.14285714
    0.00000000   -0.44444444    0.00000000
    0.00000000   -0.44444444    0.14285714
    0.00000000   -0.44444444    0.28571429
    0.00000000   -0.44444444    0.42857143
    0.00000000   -0.44444444   -0.42857143
    0.00000000   -0.44444444   -0.28571429
    0.00000000   -0.44444444   -0.14285714
    0.00000000   -0.33333333    0.00000000
    0.00000000   -0.33333333    0.14285714
    0.00000000   -0.33333333    0.28571429
    0.00000000   -0.33333333    0.42857143
    0.00000000   -0.33333333   -0.42857143
    0.00000000   -0.33333333   -0.28571429
    0.00000000   -0.33333333   -0.14285714
    0.00000000   -0.22222222    0.00000000
    0.00000000   -0.22222222    0.14285714
    0.00000000   -0.22222222    0.28571429
    0.00000000   -0.22222222    0.42857143
    0.00000000   -0.22222222   -0.42857143
    0.00000000   -0.22222222   -0.28571429
    0.00000000   -0.22222222   -0.14285714
    0.00000000   -0.11111111    0.00000000
    0.00000000   -0.11111111    0.14285714
    0.00000000   -0.11111111    0.28571429
    0.00000000   -0.11111111    0.42857143
    0.00000000   -0.11111111   -0.42857143
    0.00000000   -0.11111111   -0.28571429
    0.00000000   -0.11111111   -0.14285714
    0.11111111    0.00000000    0.00000000
    0.11111111    0.00000000    0.14285714
    0.11111111    0.00000000    0.28571429
    0.11111111    0.00000000    0.42857143
    0.11111111    0.00000000   -0.42857143
    0.11111111    0.00000000   -0.28571429
    0.11111111    0.00000000   -0.14285714
    0.11111111    0.11111111    0.00000000
    0.11111111    0.11111111    0.14285714
    0.11111111    0.11111111    0.28571429
    0.11111111    0.11111111    0.42857143
    0.11111111    0.11111111   -0.42857143
    0.11111111    0.11111111   -0.28571429
    0.11111111    0.11111111   -0.14285714
    0.11111111    0.22222222    0.00000000
    0.11111111    0.22222222    0.14285714
    0.11111111    0.22222222    0.28571429
    0.11111111    0.22222222    0.42857143
    0.11111111    0.22222222   -0.42857143
    0.11111111    0.22222222   -0.28571429
    0.11111111    0.22222222   -0.14285714
    0.11111111    0.33333333    0.00000000
    0.11111111    0.33333333    0.14285714
    0.11111111    0.33333333    0.28571429
    0.11111111    0.33333333    0.42857143
    0.11111111    0.33333333   -0.42857143
    0.11111111    0.33333333   -0.28571429
    0.11111111    0.33333333   -0.14285714
    0.11111111    0.44444444    0.00000000
    0.11111111    0.44444444    0.14285714
    0.11111111    0.44444444    0.28571429
    0.11111111    0.44444444    0.42857143
    0.11111111    0.44444444   -0.42857143
    0.11111111    0.44444444   -0.28571429
    0.11111111    0.44444444   -0.14285714
    0.11111111   -0.44444444    0.00000000
    0.11111111   -0.44444444    0.14285714
    0.11111111   -0.44444444    0.28571429
    0.11111111   -0.44444444    0.42857143
    0.11111111   -0.44444444   -0.42857143
    0.11111111   -0.44444444   -0.28571429
    0.11111111   -0.44444444   -0.14285714
    0.11111111   -0.33333333    0.00000000
    0.11111111   -0.33333333    0.14285714
    0.11111111   -0.33333333    0.28571429
    0.11111111   -0.33333333    0.42857143
    0.11111111   -0.33333333   -0.42857143
    0.11111111   -0.33333333   -0.28571429
    0.11111111   -0.33333333   -0.14285714
    0.11111111   -0.22222222    0.00000000
    0.11111111   -0.22222222    0.14285714
    0.11111111   -0.22222222    0.28571429
    0.11111111   -0.22222222    0.42857143
    0.11111111   -0.22222222   -0.42857143
    0.11111111   -0.22222222   -0.28571429
    0.11111111   -0.22222222   -0.14285714
    0.11111111   -0.11111111    0.00000000
    0.11111111   -0.11111111    0.14285714
    0.11111111   -0.11111111    0.28571429
    0.11111111   -0.11111111    0.42857143
    0.11111111   -0.11111111   -0.42857143
    0.11111111   -0.11111111   -0.28571429
    0.11111111   -0.11111111   -0.14285714
    0.22222222    0.00000000    0.00000000
    0.22222222    0.00000000    0.14285714
    0.22222222    0.00000000    0.28571429
    0.22222222    0.00000000    0.42857143
    0.22222222    0.00000000   -0.42857143
    0.22222222    0.00000000   -0.28571429
    0.22222222    0.00000000   -0.14285714
    0.22222222    0.11111111    0.00000000
    0.22222222    0.11111111    0.14285714
    0.22222222    0.11111111    0.28571429
    0.22222222    0.11111111    0.42857143
    0.22222222    0.11111111   -0.42857143
    0.22222222    0.11111111   -0.28571429
    0.22222222    0.11111111   -0.14285714
    0.22222222    0.22222222    0.00000000
    0.22222222    0.22222222    0.14285714
    0.22222222    0.22222222    0.28571429
    0.22222222    0.22222222    0.42857143
    0.22222222    0.22222222   -0.42857143
    0.22222222    0.22222222   -0.28571429
    0.22222222    0.22222222   -0.14285714
    0.22222222    0.33333333    0.00000000
    0.22222222    0.33333333    0.14285714
    0.22222222    0.33333333    0.28571429
    0.22222222    0.33333333    0.42857143
    0.22222222    0.33333333   -0.42857143
    0.22222222    0.33333333   -0.28571429
    0.22222222    0.33333333   -0.14285714
    0.22222222    0.44444444    0.00000000
    0.22222222    0.44444444    0.14285714
    0.22222222    0.44444444    0.28571429
    0.22222222    0.44444444    0.42857143
    0.22222222    0.44444444   -0.42857143
    0.22222222    0.44444444   -0.28571429
    0.22222222    0.44444444   -0.14285714
    0.22222222   -0.44444444    0.00000000
    0.22222222   -0.44444444    0.14285714
    0.22222222   -0.44444444    0.28571429
    0.22222222   -0.44444444    0.42857143
    0.22222222   -0.44444444   -0.42857143
    0.22222222   -0.44444444   -0.28571429
    0.22222222   -0.44444444   -0.14285714
    0.22222222   -0.33333333    0.00000000
    0.22222222   -0.33333333    0.14285714
    0.22222222   -0.33333333    0.28571429
    0.22222222   -0.33333333    0.42857143
    0.22222222   -0.33333333   -0.42857143
    0.22222222   -0.33333333   -0.28571429
    0.22222222   -0.33333333   -0.14285714
    0.22222222   -0.22222222    0.00000000
    0.22222222   -0.22222222    0.14285714
    0.22222222   -0.22222222    0.28571429
    0.22222222   -0.22222222    0.42857143
    0.22222222   -0.22222222   -0.42857143
    0.22222222   -0.22222222   -0.28571429
    0.22222222   -0.22222222   -0.14285714
    0.22222222   -0.11111111    0.00000000
    0.22222222   -0.11111111    0.14285714
    0.22222222   -0.11111111    0.28571429
    0.22222222   -0.11111111    0.42857143
    0.22222222   -0.11111111   -0.42857143
    0.22222222   -0.11111111   -0.28571429
    0.22222222   -0.11111111   -0.14285714
    0.33333333    0.00000000    0.00000000
    0.33333333    0.00000000    0.14285714
    0.33333333    0.00000000    0.28571429
    0.33333333    0.00000000    0.42857143
    0.33333333    0.00000000   -0.42857143
    0.33333333    0.00000000   -0.28571429
    0.33333333    0.00000000   -0.14285714
    0.33333333    0.11111111    0.00000000
    0.33333333    0.11111111    0.14285714
    0.33333333    0.11111111    0.28571429
    0.33333333    0.11111111    0.42857143
    0.33333333    0.11111111   -0.42857143
    0.33333333    0.11111111   -0.28571429
    0.33333333    0.11111111   -0.14285714
    0.33333333    0.22222222    0.00000000
    0.33333333    0.22222222    0.14285714
    0.33333333    0.22222222    0.28571429
    0.33333333    0.22222222    0.42857143
    0.33333333    0.22222222   -0.42857143
    0.33333333    0.22222222   -0.28571429
    0.33333333    0.22222222   -0.14285714
    0.33333333    0.33333333    0.00000000
    0.33333333    0.33333333    0.14285714
    0.33333333    0.33333333    0.28571429
    0.33333333    0.33333333    0.42857143
    0.33333333    0.33333333   -0.42857143
    0.33333333    0.33333333   -0.28571429
    0.33333333    0.33333333   -0.14285714
    0.33333333    0.44444444    0.00000000
    0.33333333    0.44444444    0.14285714
    0.33333333    0.44444444    0.28571429
    0.33333333    0.44444444    0.42857143
    0.33333333    0.44444444   -0.42857143
    0.33333333    0.44444444   -0.28571429
    0.33333333    0.44444444   -0.14285714
    0.33333333   -0.44444444    0.00000000
    0.33333333   -0.44444444    0.14285714
    0.33333333   -0.44444444    0.28571429
    0.33333333   -0.44444444    0.42857143
    0.33333333   -0.44444444   -0.42857143
    0.33333333   -0.44444444   -0.28571429
    0.33333333   -0.44444444   -0.14285714
    0.33333333   -0.33333333    0.00000000
    0.33333333   -0.33333333    0.14285714
    0.33333333   -0.33333333    0.28571429
    0.33333333   -0.33333333    0.42857143
    0.33333333   -0.33333333   -0.42857143
    0.33333333   -0.33333333   -0.28571429
    0.33333333   -0.33333333   -0.14285714
    0.33333333   -0.22222222    0.00000000
    0.33333333   -0.22222222    0.14285714
    0.33333333   -0.22222222    0.28571429
    0.33333333   -0.22222222    0.42857143
    0.33333333   -0.22222222   -0.42857143
    0.33333333   -0.22222222   -0.28571429
    0.33333333   -0.22222222   -0.14285714
    0.33333333   -0.11111111    0.00000000
    0.33333333   -0.11111111    0.14285714
    0.33333333   -0.11111111    0.28571429
    0.33333333   -0.11111111    0.42857143
    0.33333333   -0.11111111   -0.42857143
    0.33333333   -0.11111111   -0.28571429
    0.33333333   -0.11111111   -0.14285714
    0.44444444    0.00000000    0.00000000
    0.44444444    0.00000000    0.14285714
    0.44444444    0.00000000    0.28571429
    0.44444444    0.00000000    0.42857143
    0.44444444    0.00000000   -0.42857143
    0.44444444    0.00000000   -0.28571429
    0.44444444    0.00000000   -0.14285714
    0.44444444    0.11111111    0.00000000
    0.44444444    0.11111111    0.14285714
    0.44444444    0.11111111    0.28571429
    0.44444444    0.11111111    0.42857143
    0.44444444    0.11111111   -0.42857143
    0.44444444    0.11111111   -0.28571429
    0.44444444    0.11111111   -0.14285714
    0.44444444    0.22222222    0.00000000
    0.44444444    0.22222222    0.14285714
    0.44444444    0.22222222    0.28571429
    0.44444444    0.22222222    0.42857143
    0.44444444    0.22222222   -0.42857143
    0.44444444    0.22222222   -0.28571429
    0.44444444    0.22222222   -0.14285714
    0.44444444    0.33333333    0.00000000
    0.44444444    0.33333333    0.14285714
    0.44444444    0.33333333    0.28571429
    0.44444444    0.33333333    0.42857143
    0.44444444    0.33333333   -0.42857143
    0.44444444    0.33333333   -0.28571429
    0.44444444    0.33333333   -0.14285714
    0.44444444    0.44444444    0.00000000
    0.44444444    0.44444444    0.14285714
    0.44444444    0.44444444    0.28571429
    0.44444444    0.44444444    0.42857143
    0.44444444    0.44444444   -0.42857143
    0.44444444    0.44444444   -0.28571429
    0.44444444    0.44444444   -0.14285714
    0.44444444   -0.44444444    0.00000000
    0.44444444   -0.44444444    0.14285714
    0.44444444   -0.44444444    0.28571429
    0.44444444   -0.44444444    0.42857143
    0.44444444   -0.44444444   -0.42857143
    0.44444444   -0.44444444   -0.28571429
    0.44444444   -0.44444444   -0.14285714
    0.44444444   -0.33333333    0.00000000
    0.44444444   -0.33333333    0.14285714
    0.44444444   -0.33333333    0.28571429
    0.44444444   -0.33333333    0.42857143
    0.44444444   -0.33333333   -0.42857143
    0.44444444   -0.33333333   -0.28571429
    0.44444444   -0.33333333   -0.14285714
    0.44444444   -0.22222222    0.00000000
    0.44444444   -0.22222222    0.14285714
    0.44444444   -0.22222222    0.28571429
    0.44444444   -0.22222222    0.42857143
    0.44444444   -0.22222222   -0.42857143
    0.44444444   -0.22222222   -0.28571429
    0.44444444   -0.22222222   -0.14285714
    0.44444444   -0.11111111    0.00000000
    0.44444444   -0.11111111    0.14285714
    0.44444444   -0.11111111    0.28571429
    0.44444444   -0.11111111    0.42857143
    0.44444444   -0.11111111   -0.42857143
    0.44444444   -0.11111111   -0.28571429
    0.44444444   -0.11111111   -0.14285714
   -0.44444444    0.00000000    0.00000000
   -0.44444444    0.00000000    0.14285714
   -0.44444444    0.00000000    0.28571429
   -0.44444444    0.00000000    0.42857143
   -0.44444444    0.00000000   -0.42857143
   -0.44444444    0.00000000   -0.28571429
   -0.44444444    0.00000000   -0.14285714
   -0.44444444    0.11111111    0.00000000
   -0.44444444    0.11111111    0.14285714
   -0.44444444    0.11111111    0.28571429
   -0.44444444    0.11111111    0.42857143
   -0.44444444    0.11111111   -0.42857143
   -0.44444444    0.11111111   -0.28571429
   -0.44444444    0.11111111   -0.14285714
   -0.44444444    0.22222222    0.00000000
   -0.44444444    0.22222222    0.14285714
   -0.44444444    0.22222222    0.28571429
   -0.44444444    0.22222222    0.42857143
   -0.44444444    0.22222222   -0.42857143
   -0.44444444    0.22222222   -0.28571429
   -0.44444444    0.22222222   -0.14285714
   -0.44444444    0.33333333    0.00000000
   -0.44444444    0.33333333    0.14285714
   -0.44444444    0.33333333    0.28571429
   -0.44444444    0.33333333    0.42857143
   -0.44444444    0.33333333   -0.42857143
   -0.44444444    0.33333333   -0.28571429
   -0.44444444    0.33333333   -0.14285714
   -0.44444444    0.44444444    0.00000000
   -0.44444444    0.44444444    0.14285714
   -0.44444444    0.44444444    0.28571429
   -0.44444444    0.44444444    0.42857143
   -0.44444444    0.44444444   -0.42857143
   -0.44444444    0.44444444   -0.28571429
   -0.44444444    0.44444444   -0.14285714
   -0.44444444   -0.44444444    0.00000000
   -0.44444444   -0.44444444    0.14285714
   -0.44444444   -0.44444444    0.28571429
   -0.44444444   -0.44444444    0.42857143
   -0.44444444   -0.44444444   -0.42857143
   -0.44444444   -0.44444444   -0.28571429
   -0.44444444   -0.44444444   -0.14285714
   -0.44444444   -0.33333333    0.00000000
   -0.44444444   -0.33333333    0.14285714
   -0.44444444   -0.33333333    0.28571429
   -0.44444444   -0.33333333    0.42857143
   -0.44444444   -0.33333333   -0.42857143
   -0.44444444   -0.33333333   -0.28571429
   -0.44444444   -0.33333333   -0.14285714
   -0.44444444   -0.22222222    0.00000000
   -0.44444444   -0.22222222    0.14285714
   -0.44444444   -0.22222222    0.28571429
   -0.44444444   -0.22222222    0.42857143
   -0.44444444   -0.22222222   -0.42857143
   -0.44444444   -0.22222222   -0.28571429
   -0.44444444   -0.22222222   -0.14285714
   -0.44444444   -0.11111111    0.00000000
   -0.44444444   -0.11111111    0.14285714
   -0.44444444   -0.11111111    0.28571429
   -0.44444444   -0.11111111    0.42857143
   -0.44444444   -0.11111111   -0.42857143
   -0.44444444   -0.11111111   -0.28571429
   -0.44444444   -0.11111111   -0.14285714
   -0.33333333    0.00000000    0.00000000
   -0.33333333    0.00000000    0.14285714
   -0.33333333    0.00000000    0.28571429
   -0.33333333    0.00000000    0.42857143
   -0.33333333    0.00000000   -0.42857143
   -0.33333333    0.00000000   -0.28571429
   -0.33333333    0.00000000   -0.14285714
   -0.33333333    0.11111111    0.00000000
   -0.33333333    0.11111111    0.14285714
   -0.33333333    0.11111111    0.28571429
   -0.33333333    0.11111111    0.42857143
   -0.33333333    0.11111111   -0.42857143
   -0.33333333    0.11111111   -0.28571429
   -0.33333333    0.11111111   -0.14285714
   -0.33333333    0.22222222    0.00000000
   -0.33333333    0.22222222    0.14285714
   -0.33333333    0.22222222    0.28571429
   -0.33333333    0.22222222    0.42857143
   -0.33333333    0.22222222   -0.42857143
   -0.33333333    0.22222222   -0.28571429
   -0.33333333    0.22222222   -0.14285714
   -0.33333333    0.33333333    0.00000000
   -0.33333333    0.33333333    0.14285714
   -0.33333333    0.33333333    0.28571429
   -0.33333333    0.33333333    0.42857143
   -0.33333333    0.33333333   -0.42857143
   -0.33333333    0.33333333   -0.28571429
   -0.33333333    0.33333333   -0.14285714
   -0.33333333    0.44444444    0.00000000
   -0.33333333    0.44444444    0.14285714
   -0.33333333    0.44444444    0.28571429
   -0.33333333    0.44444444    0.42857143
   -0.33333333    0.44444444   -0.42857143
   -0.33333333    0.44444444   -0.28571429
   -0.33333333    0.44444444   -0.14285714
   -0.33333333   -0.44444444    0.00000000
   -0.33333333   -0.44444444    0.14285714
   -0.33333333   -0.44444444    0.28571429
   -0.33333333   -0.44444444    0.42857143
   -0.33333333   -0.44444444   -0.42857143
   -0.33333333   -0.44444444   -0.28571429
   -0.33333333   -0.44444444   -0.14285714
   -0.33333333   -0.33333333    0.00000000
   -0.33333333   -0.33333333    0.14285714
   -0.33333333   -0.33333333    0.28571429
   -0.33333333   -0.33333333    0.42857143
   -0.33333333   -0.33333333   -0.42857143
   -0.33333333   -0.33333333   -0.28571429
   -0.33333333   -0.33333333   -0.14285714
   -0.33333333   -0.22222222    0.00000000
   -0.33333333   -0.22222222    0.14285714
   -0.33333333   -0.22222222    0.28571429
   -0.33333333   -0.22222222    0.42857143
   -0.33333333   -0.22222222   -0.42857143
   -0.33333333   -0.22222222   -0.28571429
   -0.33333333   -0.22222222   -0.14285714
   -0.33333333   -0.11111111    0.00000000
   -0.33333333   -0.11111111    0.14285714
   -0.33333333   -0.11111111    0.28571429
   -0.33333333   -0.11111111    0.42857143
   -0.33333333   -0.11111111   -0.42857143
   -0.33333333   -0.11111111   -0.28571429
   -0.33333333   -0.11111111   -0.14285714
   -0.22222222    0.00000000    0.00000000
   -0.22222222    0.00000000    0.14285714
   -0.22222222    0.00000000    0.28571429
   -0.22222222    0.00000000    0.42857143
   -0.22222222    0.00000000   -0.42857143
   -0.22222222    0.00000000   -0.28571429
   -0.22222222    0.00000000   -0.14285714
   -0.22222222    0.11111111    0.00000000
   -0.22222222    0.11111111    0.14285714
   -0.22222222    0.11111111    0.28571429
   -0.22222222    0.11111111    0.42857143
   -0.22222222    0.11111111   -0.42857143
   -0.22222222    0.11111111   -0.28571429
   -0.22222222    0.11111111   -0.14285714
   -0.22222222    0.22222222    0.00000000
   -0.22222222    0.22222222    0.14285714
   -0.22222222    0.22222222    0.28571429
   -0.22222222    0.22222222    0.42857143
   -0.22222222    0.22222222   -0.42857143
   -0.22222222    0.22222222   -0.28571429
   -0.22222222    0.22222222   -0.14285714
   -0.22222222    0.33333333    0.00000000
   -0.22222222    0.33333333    0.14285714
   -0.22222222    0.33333333    0.28571429
   -0.22222222    0.33333333    0.42857143
   -0.22222222    0.33333333   -0.42857143
   -0.22222222    0.33333333   -0.28571429
   -0.22222222    0.33333333   -0.14285714
   -0.22222222    0.44444444    0.00000000
   -0.22222222    0.44444444    0.14285714
   -0.22222222    0.44444444    0.28571429
   -0.22222222    0.44444444    0.42857143
   -0.22222222    0.44444444   -0.42857143
   -0.22222222    0.44444444   -0.28571429
   -0.22222222    0.44444444   -0.14285714
   -0.22222222   -0.44444444    0.00000000
   -0.22222222   -0.44444444    0.14285714
   -0.22222222   -0.44444444    0.28571429
   -0.22222222   -0.44444444    0.42857143
   -0.22222222   -0.44444444   -0.42857143
   -0.22222222   -0.44444444   -0.28571429
   -0.22222222   -0.44444444   -0.14285714
   -0.22222222   -0.33333333    0.00000000
   -0.22222222   -0.33333333    0.14285714
   -0.22222222   -0.33333333    0.28571429
   -0.22222222   -0.33333333    0.42857143
   -0.22222222   -0.33333333   -0.42857143
   -0.22222222   -0.33333333   -0.28571429
   -0.22222222   -0.33333333   -0.14285714
   -0.22222222   -0.22222222    0.00000000
   -0.22222222   -0.22222222    0.14285714
   -0.22222222   -0.22222222    0.28571429
   -0.22222222   -0.22222222    0.42857143
   -0.22222222   -0.22222222   -0.42857143
   -0.22222222   -0.22222222   -0.28571429
   -0.22222222   -0.22222222   -0.14285714
   -0.22222222   -0.11111111    0.00000000
   -0.22222222   -0.11111111    0.14285714
   -0.22222222   -0.11111111    0.28571429
   -0.22222222   -0.11111111    0.42857143
   -0.22222222   -0.11111111   -0.42857143
   -0.22222222   -0.11111111   -0.28571429
   -0.22222222   -0.11111111   -0.14285714
   -0.11111111    0.00000000    0.00000000
   -0.11111111    0.00000000    0.14285714
   -0.11111111    0.00000000    0.28571429
   -0.11111111    0.00000000    0.42857143
   -0.11111111    0.00000000   -0.42857143
   -0.11111111    0.00000000   -0.28571429
   -0.11111111    0.00000000   -0.14285714
   -0.11111111    0.11111111    0.00000000
   -0.11111111    0.11111111    0.14285714
   -0.11111111    0.11111111    0.28571429
   -0.11111111    0.11111111    0.42857143
   -0.11111111    0.11111111   -0.42857143
   -0.11111111    0.11111111   -0.28571429
   -0.11111111    0.11111111   -0.14285714
   -0.11111111    0.22222222    0.00000000
   -0.11111111    0.22222222    0.14285714
   -0.11111111    0.22222222    0.28571429
   -0.11111111    0.22222222    0.42857143
   -0.11111111    0.22222222   -0.42857143
   -0.11111111    0.22222222   -0.28571429
   -0.11111111    0.22222222   -0.14285714
   -0.11111111    0.33333333    0.00000000
   -0.11111111    0.33333333    0.14285714
   -0.11111111    0.33333333    0.28571429
   -0.11111111    0.33333333    0.42857143
   -0.11111111    0.33333333   -0.42857143
   -0.11111111    0.33333333   -0.28571429
   -0.11111111    0.33333333   -0.14285714
   -0.11111111    0.44444444    0.00000000
   -0.11111111    0.44444444    0.14285714
   -0.11111111    0.44444444    0.28571429
   -0.11111111    0.44444444    0.42857143
   -0.11111111    0.44444444   -0.42857143
   -0.11111111    0.44444444   -0.28571429
   -0.11111111    0.44444444   -0.14285714
   -0.11111111   -0.44444444    0.00000000
   -0.11111111   -0.44444444    0.14285714
   -0.11111111   -0.44444444    0.28571429
   -0.11111111   -0.44444444    0.42857143
   -0.11111111   -0.44444444   -0.42857143
   -0.11111111   -0.44444444   -0.28571429
   -0.11111111   -0.44444444   -0.14285714
   -0.11111111   -0.33333333    0.00000000
   -0.11111111   -0.33333333    0.14285714
   -0.11111111   -0.33333333    0.28571429
   -0.11111111   -0.33333333    0.42857143
   -0.11111111   -0.33333333   -0.42857143
   -0.11111111   -0.33333333   -0.28571429
   -0.11111111   -0.33333333   -0.14285714
   -0.11111111   -0.22222222    0.00000000
   -0.11111111   -0.22222222    0.14285714
   -0.11111111   -0.22222222    0.28571429
   -0.11111111   -0.22222222    0.42857143
   -0.11111111   -0.22222222   -0.42857143
   -0.11111111   -0.22222222   -0.28571429
   -0.11111111   -0.22222222   -0.14285714
   -0.11111111   -0.11111111    0.00000000
   -0.11111111   -0.11111111    0.14285714
   -0.11111111   -0.11111111    0.28571429
   -0.11111111   -0.11111111    0.42857143
   -0.11111111   -0.11111111   -0.42857143
   -0.11111111   -0.11111111   -0.28571429
   -0.11111111   -0.11111111   -0.14285714
end kpoints

begin spinor_projections
    36
   0.00000    0.00000    0.00000     0  1  1
    0.0000000  0.0000000  1.0000000   1.0000000  0.0000000  0.0000000    1.00
    1   1.0000000  0.0000000  0.0000000
   0.00000    0.00000    0.00000     0  1  1
    0.0000000  0.0000000  1.0000000   1.0000000  0.0000000  0.0000000    1.00
   -1   1.0000000  0.0000000  0.0000000
   0.00000    0.00000    0.00000     1  1  1
    0.0000000  0.0000000  1.0000000   1.0000000  0.0000000  0.0000000    1.00
    1   1.0000000  0.0000000  0.0000000
   0.00000    0.00000    0.00000     1  1  1
    0.0000000  0.0000000  1.0000000   1.0000000  0.0000000  0.0000000    1.00
   -1   1.0000000  0.0000000  0.0000000
   0.00000    0.00000    0.00000     1  2  1
    0.0000000  0.0000000  1.0000000   1.0000000  0.0000000  0.0000000    1.00
    1   1.0000000  0.0000000  0.0000000
   0.00000    0.00000    0.00000     1  2  1
    0.0000000  0.0000000  1.0000000   1.0000000  0.0000000  0.0000000    1.00
   -1   1.0000000  0.0000000  0.0000000
   0.00000    0.00000    0.00000     1  3  1
    0.0000000  0.0000000  1.0000000   1.0000000  0.0000000  0.0000000    1.00
    1   1.0000000  0.0000000  0.0000000
   0.00000    0.00000    0.00000     1  3  1
    0.0000000  0.0000000  1.0000000   1.0000000  0.0000000  0.0000000    1.00
   -1   1.0000000  0.0000000  0.0000000
   0.00000    0.00000    0.00000     2  1  1
    0.0000000  0.0000000  1.0000000   1.0000000  0.0000000  0.0000000    1.00
    1   1.0000000  0.0000000  0.0000000
   0.00000    0.00000    0.00000     2  1  1
    0.0000000  0.0000000  1.0000000   1.0000000  0.0000000  0.0000000    1.00
   -1   1.0000000  0.0000000  0.0000000
   0.00000    0.00000    0.00000     2  2  1
    0.0000000  0.0000000  1.0000000   1.0000000  0.0000000  0.0000000    1.00
    1   1.0000000  0.0000000  0.0000000
   0.00000    0.00000    0.00000     2  2  1
    0.0000000  0.0000000  1.0000000   1.0000000  0.0000000  0.0000000    1.00
   -1   1.0000000  0.0000000  0.0000000
   0.00000    0.00000    0.00000     2  3  1
    0.0000000  0.0000000  1.0000000   1.0000000  0.0000000  0.0000000    1.00
    1   1.0000000  0.0000000  0.0000000
   0.00000    0.00000    0.00000     2  3  1
    0.0000000  0.0000000  1.0000000   1.0000000  0.0000000  0.0000000    1.00
   -1   1.0000000  0.0000000  0.0000000
   0.00000    0.00000    0.00000     2  4  1
    0.0000000  0.0000000  1.0000000   1.0000000  0.0000000  0.0000000    1.00
    1   1.0000000  0.0000000  0.0000000
   0.00000    0.00000    0.00000     2  4  1
    0.0000000  0.0000000  1.0000000   1.0000000  0.0000000  0.0000000    1.00
   -1   1.0000000  0.0000000  0.0000000
   0.00000    0.00000    0.00000     2  5  1
    0.0000000  0.0000000  1.0000000   1.0000000  0.0000000  0.0000000    1.00
    1   1.0000000  0.0000000  0.0000000
   0.00000    0.00000    0.00000     2  5  1
    0.0000000  0.0000000  1.0000000   1.0000000  0.0000000  0.0000000    1.00
   -1   1.0000000  0.0000000  0.0000000
   0.50000    0.50000    0.50000     0  1  1
    0.0000000  0.0000000  1.0000000   1.0000000  0.0000000  0.0000000    1.00
    1   1.0000000  0.0000000  0.0000000
   0.50000    0.50000    0.50000     0  1  1
    0.0000000  0.0000000  1.0000000   1.0000000  0.0000000  0.0000000    1.00
   -1   1.0000000  0.0000000  0.0000000
   0.50000    0.50000    0.50000     1  1  1
    0.0000000  0.0000000  1.0000000   1.0000000  0.0000000  0.0000000    1.00
    1   1.0000000  0.0000000  0.0000000
   0.50000    0.50000    0.50000     1  1  1
    0.0000000  0.0000000  1.0000000   1.0000000  0.0000000  0.0000000    1.00
   -1   1.0000000  0.0000000  0.0000000
   0.50000    0.50000    0.50000     1  2  1
    0.0000000  0.0000000  1.0000000   1.0000000  0.0000000  0.0000000    1.00
    1   1.0000000  0.0000000  0.0000000
   0.50000    0.50000    0.50000     1  2  1
    0.0000000  0.0000000  1.0000000   1.0000000  0.0000000  0.0000000    1.00
   -1   1.0000000  0.0000000  0.0000000
   0.50000    0.50000    0.50000     1  3  1
    0.0000000  0.0000000  1.0000000   1.0000000  0.0000000  0.0000000    1.00
    1   1.0000000  0.0000000  0.0000000
   0.50000    0.50000    0.50000     1  3  1
    0.0000000  0.0000000  1.0000000   1.0000000  0.0000000  0.0000000    1.00
   -1   1.0000000  0.0000000  0.0000000
   0.50000    0.50000    0.50000     2  1  1
    0.0000000  0.0000000  1.0000000   1.0000000  0.0000000  0.0000000    1.00
    1   1.0000000  0.0000000  0.0000000
   0.50000    0.50000    0.50000     2  1  1
    0.0000000  0.0000000  1.0000000   1.0000000  0.0000000  0.0000000    1.00
   -1   1.0000000  0.0000000  0.0000000
   0.50000    0.50000    0.50000     2  2  1
    0.0000000  0.0000000  1.0000000   1.0000000  0.0000000  0.0000000    1.00
    1   1.0000000  0.0000000  0.0000000
   0.50000    0.50000    0.50000     2  2  1
    0.0000000  0.0000000  1.0000000   1.0000000  0.0000000  0.0000000    1.00
   -1   1.0000000  0.0000000  0.0000000
   0.50000    0.50000    0.50000     2  3  1
    0.0000000  0.0000000  1.0000000   1.0000000  0.0000000  0.0000000    1.00
    1   1.0000000  0.0000000  0.0000000
   0.50000    0.50000    0.50000     2  3  1
    0.0000000  0.0000000  1.0000000   1.0000000  0.0000000  0.0000000    1.00
   -1   1.0000000  0.0000000  0.0000000
   0.50000    0.50000    0.50000     2  4  1
    0.0000000  0.0000000  1.0000000   1.0000000  0.0000000  0.0000000    1.00
    1   1.0000000  0.0000000  0.0000000
   0.50000    0.50000    0.50000     2  4  1
    0.0000000  0.0000000  1.0000000   1.0000000  0.0000000  0.0000000    1.00
   -1   1.0000000  0.0000000  0.0000000
   0.50000    0.50000    0.50000     2  5  1
    0.0000000  0.0000000  1.0000000   1.0000000  0.0000000  0.0000000    1.00
    1   1.0000000  0.0000000  0.0000000
   0.50000    0.50000    0.50000     2  5  1
    0.0000000  0.0000000  1.0000000   1.0000000  0.0000000  0.0000000    1.00
   -1   1.0000000  0.0000000  0.0000000
end spinor_projections

begin nnkpts
   6
     1     2      0   0   0
     1     7      0   0   0
     1     8      0   0   0
     1    57      0   0   0
     1    64      0   0   0
     1   505      0   0   0
     2     1      0   0   0
     2     3      0   0   0
     2     9      0   0   0
     2    58      0   0   0
     2    65      0   0   0
     2   506      0   0   0
     3     2      0   0   0
     3     4      0   0   0
     3    10      0   0   0
     3    59      0   0   0
     3    66      0   0   0
     3   507      0   0   0
     4     3      0   0   0
     4     5      0   0   1
     4    11      0   0   0
     4    60      0   0   0
     4    67      0   0   0
     4   508      0   0   0
     5     6      0   0   0
     5     4      0   0  -1
     5    12      0   0   0
     5    61      0   0   0
     5    68      0   0   0
     5   509      0   0   0
     6     5      0   0   0
     6     7      0   0   0
     6    13      0   0   0
     6    62      0   0   0
     6    69      0   0   0
     6   510      0   0   0
     7     1      0   0   0
     7     6      0   0   0
     7    14      0   0   0
     7    63      0   0   0
     7    70      0   0   0
     7   511      0   0   0
     8     9      0   0   0
     8    14      0   0   0
     8     1      0   0   0
     8    15      0   0   0
     8    71      0   0   0
     8   512      0   0   0
     9     8      0   0   0
     9    10      0   0   0
     9     2      0   0   0
     9    16      0   0   0
     9    72      0   0   0
     9   513      0   0   0
    10     9      0   0   0
    10    11      0   0   0
    10     3      0   0   0
    10    17      0   0   0
    10    73      0   0   0
    10   514      0   0   0
    11    10      0   0   0
    11    12      0   0   1
    11     4      0   0   0
    11    18      0   0   0
    11    74      0   0   0
    11   515      0   0   0
    12    13      0   0   0
    12    11      0   0  -1
    12     5      0   0   0
    12    19      0   0   0
    12    75      0   0   0
    12   516      0   0   0
    13    12      0   0   0
    13    14      0   0   0
    13     6      0   0   0
    13    20      0   0   0
    13    76      0   0   0
    13   517      0   0   0
    14     8      0   0   0
    14    13      0   0   0
    14     7      0   0   0
    14    21      0   0   0
    14    77      0   0   0
    14   518      0   0   0
    15    16      0   0   0
    15    21      0   0   0
    15     8      0   0   0
    15    22      0   0   0
    15    78      0   0   0
    15   519      0   0   0
    16    15      0   0   0
    16    17      0   0   0
    16     9      0   0   0
    16    23      0   0   0
    16    79      0   0   0
    16   520      0   0   0
    17    16      0   0   0
    17    18      0   0   0
    17    10      0   0   0
    17    24      0   0   0
    17    80      0   0   0
    17   521      0   0   0
    18    17      0   0   0
    18    19      0   0   1
    18    11      0   0   0
    18    25      0   0   0
    18    81      0   0   0
    18   522      0   0   0
    19    20      0   0   0
    19    18      0   0  -1
    19    12      0   0   0
    19    26      0   0   0
    19    82      0   0   0
    19   523      0   0   0
    20    19      0   0   0
    20    21      0   0   0
    20    13      0   0   0
    20    27      0   0   0
    20    83      0   0   0
    20   524      0   0   0
    21    15      0   0   0
    21    20      0   0   0
    21    14      0   0   0
    21    28      0   0   0
    21    84      0   0   0
    21   525      0   0   0
    22    23      0   0   0
    22    28      0   0   0
    22    15      0   0   0
    22    29      0   0   0
    22    85      0   0   0
    22   526      0   0   0
    23    22      0   0   0
    23    24      0   0   0
    23    16      0   0   0
    23    30      0   0   0
    23    86      0   0   0
    23   527      0   0   0
    24    23      0   0   0
    24    25      0   0   0
    24    17      0   0   0
    24    31      0   0   0
    24    87      0   0   0
    24   528      0   0   0
    25    24      0   0   0
    25    26      0   0   1
    25    18      0   0   0
    25    32      0   0   0
    25    88      0   0   0
    25   529      0   0   0
    26    27      0   0   0
    26    25      0   0  -1
    26    19      0   0   0
    26    33      0   0   0
    26    89      0   0   0
    26   530      0   0   0
    27    26      0   0   0
    27    28      0   0   0
    27    20      0   0   0
    27    34      0   0   0
    27    90      0   0   0
    27   531      0   0   0
    28    22      0   0   0
    28    27      0   0   0
    28    21      0   0   0
    28    35      0   0   0
    28    91      0   0   0
    28   532      0   0   0
    29    30      0   0   0
    29    35      0   0   0
    29    22      0   0   0
    29    92      0   0   0
    29   533      0   0   0
    29    36      0   1   0
    30    29      0   0   0
    30    31      0   0   0
    30    23      0   0   0
    30    93      0   0   0
    30   534      0   0   0
    30    37      0   1   0
    31    30      0   0   0
    31    32      0   0   0
    31    24      0   0   0
    31    94      0   0   0
    31   535      0   0   0
    31    38      0   1   0
    32    31      0   0   0
    32    33      0   0   1
    32    25      0   0   0
    32    95      0   0   0
    32   536      0   0   0
    32    39      0   1   0
    33    34      0   0   0
    33    32      0   0  -1
    33    26      0   0   0
    33    96      0   0   0
    33   537      0   0   0
    33    40      0   1   0
    34    33      0   0   0
    34    35      0   0   0
    34    27      0   0   0
    34    97      0   0   0
    34   538      0   0   0
    34    41      0   1   0
    35    29      0   0   0
    35    34      0   0   0
    35    28      0   0   0
    35    98      0   0   0
    35   539      0   0   0
    35    42      0   1   0
    36    37      0   0   0
    36    42      0   0   0
    36    43      0   0   0
    36    99      0   0   0
    36   540      0   0   0
    36    29      0  -1   0
    37    36      0   0   0
    37    38      0   0   0
    37    44      0   0   0
    37   100      0   0   0
    37   541      0   0   0
    37    30      0  -1   0
    38    37      0   0   0
    38    39      0   0   0
    38    45      0   0   0
    38   101      0   0   0
    38   542      0   0   0
    38    31      0  -1   0
    39    38      0   0   0
    39    40      0   0   1
    39    46      0   0   0
    39   102      0   0   0
    39   543      0   0   0
    39    32      0  -1   0
    40    41      0   0   0
    40    39      0   0  -1
    40    47      0   0   0
    40   103      0   0   0
    40   544      0   0   0
    40    33      0  -1   0
    41    40      0   0   0
    41    42      0   0   0
    41    48      0   0   0
    41   104      0   0   0
    41   545      0   0   0
    41    34      0  -1   0
    42    36      0   0   0
    42    41      0   0   0
    42    49      0   0   0
    42   105      0   0   0
    42   546      0   0   0
    42    35      0  -1   0
    43    44      0   0   0
    43    49      0   0   0
    43    36      0   0   0
    43    50      0   0   0
    43   106      0   0   0
    43   547      0   0   0
    44    43      0   0   0
    44    45      0   0   0
    44    37      0   0   0
    44    51      0   0   0
    44   107      0   0   0
    44   548      0   0   0
    45    44      0   0   0
    45    46      0   0   0
    45    38      0   0   0
    45    52      0   0   0
    45   108      0   0   0
    45   549      0   0   0
    46    45      0   0   0
    46    47      0   0   1
    46    39      0   0   0
    46    53      0   0   0
    46   109      0   0   0
    46   550      0   0   0
    47    48      0   0   0
    47    46      0   0  -1
    47    40      0   0   0
    47    54      0   0   0
    47   110      0   0   0
    47   551      0   0   0
    48    47      0   0   0
    48    49      0   0   0
    48    41      0   0   0
    48    55      0   0   0
    48   111      0   0   0
    48   552      0   0   0
    49    43      0   0   0
    49    48      0   0   0
    49    42      0   0   0
    49    56      0   0   0
    49   112      0   0   0
    49   553      0   0   0
    50    51      0   0   0
    50    56      0   0   0
    50    43      0   0   0
    50    57      0   0   0
    50   113      0   0   0
    50   554      0   0   0
    51    50      0   0   0
    51    52      0   0   0
    51    44      0   0   0
    51    58      0   0   0
    51   114      0   0   0
    51   555      0   0   0
    52    51      0   0   0
    52    53      0   0   0
    52    45      0   0   0
    52    59      0   0   0
    52   115      0   0   0
    52   556      0   0   0
    53    52      0   0   0
    53    54      0   0   1
    53    46      0   0   0
    53    60      0   0   0
    53   116      0   0   0
    53   557      0   0   0
    54    55      0   0   0
    54    53      0   0  -1
    54    47      0   0   0
    54    61      0   0   0
    54   117      0   0   0
    54   558      0   0   0
    55    54      0   0   0
    55    56      0   0   0
    55    48      0   0   0
    55    62      0   0   0
    55   118      0   0   0
    55   559      0   0   0
    56    50      0   0   0
    56    55      0   0   0
    56    49      0   0   0
    56    63      0   0   0
    56   119      0   0   0
    56   560      0   0   0
    57    58      0   0   0
    57    63      0   0   0
    57     1      0   0   0
    57    50      0   0   0
    57   120      0   0   0
    57   561      0   0   0
    58    57      0   0   0
    58    59      0   0   0
    58     2      0   0   0
    58    51      0   0   0
    58   121      0   0   0
    58   562      0   0   0
    59    58      0   0   0
    59    60      0   0   0
    59     3      0   0   0
    59    52      0   0   0
    59   122      0   0   0
    59   563      0   0   0
    60    59      0   0   0
    60    61      0   0   1
    60     4      0   0   0
    60    53      0   0   0
    60   123      0   0   0
    60   564      0   0   0
    61    62      0   0   0
    61    60      0   0  -1
    61     5      0   0   0
    61    54      0   0   0
    61   124      0   0   0
    61   565      0   0   0
    62    61      0   0   0
    62    63      0   0   0
    62     6      0   0   0
    62    55      0   0   0
    62   125      0   0   0
    62   566      0   0   0
    63    57      0   0   0
    63    62      0   0   0
    63     7      0   0   0
    63    56      0   0   0
    63   126      0   0   0
    63   567      0   0   0
    64    65      0   0   0
    64    70      0   0   0
    64     1      0   0   0
    64    71      0   0   0
    64   120      0   0   0
    64   127      0   0   0
    65    64      0   0   0
    65    66      0   0   0
    65     2      0   0   0
    65    72      0   0   0
    65   121      0   0   0
    65   128      0   0   0
    66    65      0   0   0
    66    67      0   0   0
    66     3      0   0   0
    66    73      0   0   0
    66   122      0   0   0
    66   129      0   0   0
    67    66      0   0   0
    67    68      0   0   1
    67     4      0   0   0
    67    74      0   0   0
    67   123      0   0   0
    67   130      0   0   0
    68    69      0   0   0
    68    67      0   0  -1
    68     5      0   0   0
    68    75      0   0   0
    68   124      0   0   0
    68   131      0   0   0
    69    68      0   0   0
    69    70      0   0   0
    69     6      0   0   0
    69    76      0   0   0
    69   125      0   0   0
    69   132      0   0   0
    70    64      0   0   0
    70    69      0   0   0
    70     7      0   0   0
    70    77      0   0   0
    70   126      0   0   0
    70   133      0   0   0
    71    72      0   0   0
    71    77      0   0   0
    71     8      0   0   0
    71    64      0   0   0
    71    78      0   0   0
    71   134      0   0   0
    72    71      0   0   0
    72    73      0   0   0
    72     9      0   0   0
    72    65      0   0   0
    72    79      0   0   0
    72   135      0   0   0
    73    72      0   0   0
    73    74      0   0   0
    73    10      0   0   0
    73    66      0   0   0
    73    80      0   0   0
    73   136      0   0   0
    74    73      0   0   0
    74    75      0   0   1
    74    11      0   0   0
    74    67      0   0   0
    74    81      0   0   0
    74   137      0   0   0
    75    76      0   0   0
    75    74      0   0  -1
    75    12      0   0   0
    75    68      0   0   0
    75    82      0   0   0
    75   138      0   0   0
    76    75      0   0   0
    76    77      0   0   0
    76    13      0   0   0
    76    69      0   0   0
    76    83      0   0   0
    76   139      0   0   0
    77    71      0   0   0
    77    76      0   0   0
    77    14      0   0   0
    77    70      0   0   0
    77    84      0   0   0
    77   140      0   0   0
    78    79      0   0   0
    78    84      0   0   0
    78    15      0   0   0
    78    71      0   0   0
    78    85      0   0   0
    78   141      0   0   0
    79    78      0   0   0
    79    80      0   0   0
    79    16      0   0   0
    79    72      0   0   0
    79    86      0   0   0
    79   142      0   0   0
    80    79      0   0   0
    80    81      0   0   0
    80    17      0   0   0
    80    73      0   0   0
    80    87      0   0   0
    80   143      0   0   0
    81    80      0   0   0
    81    82      0   0   1
    81    18      0   0   0
    81    74      0   0   0
    81    88      0   0   0
    81   144      0   0   0
    82    83      0   0   0
    82    81      0   0  -1
    82    19      0   0   0
    82    75      0   0   0
    82    89      0   0   0
    82   145      0   0   0
    83    82      0   0   0
    83    84      0   0   0
    83    20      0   0   0
    83    76      0   0   0
    83    90      0   0   0
    83   146      0   0   0
    84    78      0   0   0
    84    83      0   0   0
    84    21      0   0   0
    84    77      0   0   0
    84    91      0   0   0
    84   147      0   0   0
    85    86      0   0   0
    85    91      0   0   0
    85    22      0   0   0
    85    78      0   0   0
    85    92      0   0   0
    85   148      0   0   0
    86    85      0   0   0
    86    87      0   0   0
    86    23      0   0   0
    86    79      0   0   0
    86    93      0   0   0
    86   149      0   0   0
    87    86      0   0   0
    87    88      0   0   0
    87    24      0   0   0
    87    80      0   0   0
    87    94      0   0   0
    87   150      0   0   0
    88    87      0   0   0
    88    89      0   0   1
    88    25      0   0   0
    88    81      0   0   0
    88    95      0   0   0
    88   151      0   0   0
    89    90      0   0   0
    89    88      0   0  -1
    89    26      0   0   0
    89    82      0   0   0
    89    96      0   0   0
    89   152      0   0   0
    90    89      0   0   0
    90    91      0   0   0
    90    27      0   0   0
    90    83      0   0   0
    90    97      0   0   0
    90   153      0   0   0
    91    85      0   0   0
    91    90      0   0   0
    91    28      0   0   0
    91    84      0   0   0
    91    98      0   0   0
    91   154      0   0   0
    92    93      0   0   0
    92    98      0   0   0
    92    29      0   0   0
    92    85      0   0   0
    92   155      0   0   0
    92    99      0   1   0
    93    92      0   0   0
    93    94      0   0   0
    93    30      0   0   0
    93    86      0   0   0
    93   156      0   0   0
    93   100      0   1   0
    94    93      0   0   0
    94    95      0   0   0
    94    31      0   0   0
    94    87      0   0   0
    94   157      0   0   0
    94   101      0   1   0
    95    94      0   0   0
    95    96      0   0   1
    95    32      0   0   0
    95    88      0   0   0
    95   158      0   0   0
    95   102      0   1   0
    96    97      0   0   0
    96    95      0   0  -1
    96    33      0   0   0
    96    89      0   0   0
    96   159      0   0   0
    96   103      0   1   0
    97    96      0   0   0
    97    98      0   0   0
    97    34      0   0   0
    97    90      0   0   0
    97   160      0   0   0
    97   104      0   1   0
    98    92      0   0   0
    98    97      0   0   0
    98    35      0   0   0
    98    91      0   0   0
    98   161      0   0   0
    98   105      0   1   0
    99   100      0   0   0
    99   105      0   0   0
    99    36      0   0   0
    99   106      0   0   0
    99   162      0   0   0
    99    92      0  -1   0
   100    99      0   0   0
   100   101      0   0   0
   100    37      0   0   0
   100   107      0   0   0
   100   163      0   0   0
   100    93      0  -1   0
   101   100      0   0   0
   101   102      0   0   0
   101    38      0   0   0
   101   108      0   0   0
   101   164      0   0   0
   101    94      0  -1   0
   102   101      0   0   0
   102   103      0   0   1
   102    39      0   0   0
   102   109      0   0   0
   102   165      0   0   0
   102    95      0  -1   0
   103   104      0   0   0
   103   102      0   0  -1
   103    40      0   0   0
   103   110      0   0   0
   103   166      0   0   0
   103    96      0  -1   0
   104   103      0   0   0
   104   105      0   0   0
   104    41      0   0   0
   104   111      0   0   0
   104   167      0   0   0
   104    97      0  -1   0
   105    99      0   0   0
   105   104      0   0   0
   105    42      0   0   0
   105   112      0   0   0
   105   168      0   0   0
   105    98      0  -1   0
   106   107      0   0   0
   106   112      0   0   0
   106    43      0   0   0
   106    99      0   0   0
   106   113      0   0   0
   106   169      0   0   0
   107   106      0   0   0
   107   108      0   0   0
   107    44      0   0   0
   107   100      0   0   0
   107   114      0   0   0
   107   170      0   0   0
   108   107      0   0   0
   108   109      0   0   0
   108    45      0   0   0
   108   101      0   0   0
   108   115      0   0   0
   108   171      0   0   0
   109   108      0   0   0
   109   110      0   0   1
   109    46      0   0   0
   109   102      0   0   0
   109   116      0   0   0
   109   172      0   0   0
   110   111      0   0   0
   110   109      0   0  -1
   110    47      0   0   0
   110   103      0   0   0
   110   117      0   0   0
   110   173      0   0   0
   111   110      0   0   0
   111   112      0   0   0
   111    48      0   0   0
   111   104      0   0   0
   111   118      0   0   0
   111   174      0   0   0
   112   106      0   0   0
   112   111      0   0   0
   112    49      0   0   0
   112   105      0   0   0
   112   119      0   0   0
   112   175      0   0   0
   113   114      0   0   0
   113   119      0   0   0
   113    50      0   0   0
   113   106      0   0   0
   113   120      0   0   0
   113   176      0   0   0
   114   113      0   0   0
   114   115      0   0   0
   114    51      0   0   0
   114   107      0   0   0
   114   121      0   0   0
   114   177      0   0   0
   115   114      0   0   0
   115   116      0   0   0
   115    52      0   0   0
   115   108      0   0   0
   115   122      0   0   0
   115   178      0   0   0
   116   115      0   0   0
   116   117      0   0   1
   116    53      0   0   0
   116   109      0   0   0
   116   123      0   0   0
   116   179      0   0   0
   117   118      0   0   0
   117   116      0   0  -1
   117    54      0   0   0
   117   110      0   0   0
   117   124      0   0   0
   117   180      0   0   0
   118   117      0   0   0
   118   119      0   0   0
   118    55      0   0   0
   118   111      0   0   0
   118   125      0   0   0
   118   181      0   0   0
   119   113      0   0   0
   119   118      0   0   0
   119    56      0   0   0
   119   112      0   0   0
   119   126      0   0   0
   119   182      0   0   0
   120   121      0   0   0
   120   126      0   0   0
   120    57      0   0   0
   120    64      0   0   0
   120   113      0   0   0
   120   183      0   0   0
   121   120      0   0   0
   121   122      0   0   0
   121    58      0   0   0
   121    65      0   0   0
   121   114      0   0   0
   121   184      0   0   0
   122   121      0   0   0
   122   123      0   0   0
   122    59      0   0   0
   122    66      0   0   0
   122   115      0   0   0
   122   185      0   0   0
   123   122      0   0   0
   123   124      0   0   1
   123    60      0   0   0
   123    67      0   0   0
   123   116      0   0   0
   123   186      0   0   0
   124   125      0   0   0
   124   123      0   0  -1
   124    61      0   0   0
   124    68      0   0   0
   124   117      0   0   0
   124   187      0   0   0
   125   124      0   0   0
   125   126      0   0   0
   125    62      0   0   0
   125    69      0   0   0
   125   118      0   0   0
   125   188      0   0   0
   126   120      0   0   0
   126   125      0   0   0
   126    63      0   0   0
   126    70      0   0   0
   126   119      0   0   0
   126   189      0   0   0
   127   128      0   0   0
   127   133      0   0   0
   127    64      0   0   0
   127   134      0   0   0
   127   183      0   0   0
   127   190      0   0   0
   128   127      0   0   0
   128   129      0   0   0
   128    65      0   0   0
   128   135      0   0   0
   128   184      0   0   0
   128   191      0   0   0
   129   128      0   0   0
   129   130      0   0   0
   129    66      0   0   0
   129   136      0   0   0
   129   185      0   0   0
   129   192      0   0   0
   130   129      0   0   0
   130   131      0   0   1
   130    67      0   0   0
   130   137      0   0   0
   130   186      0   0   0
   130   193      0   0   0
   131   132      0   0   0
   131   130      0   0  -1
   131    68      0   0   0
   131   138      0   0   0
   131   187      0   0   0
   131   194      0   0   0
   132   131      0   0   0
   132   133      0   0   0
   132    69      0   0   0
   132   139      0   0   0
   132   188      0   0   0
   132   195      0   0   0
   133   127      0   0   0
   133   132      0   0   0
   133    70      0   0   0
   133   140      0   0   0
   133   189      0   0   0
   133   196      0   0   0
   134   135      0   0   0
   134   140      0   0   0
   134    71      0   0   0
   134   127      0   0   0
   134   141      0   0   0
   134   197      0   0   0
   135   134      0   0   0
   135   136      0   0   0
   135    72      0   0   0
   135   128      0   0   0
   135   142      0   0   0
   135   198      0   0   0
   136   135      0   0   0
   136   137      0   0   0
   136    73      0   0   0
   136   129      0   0   0
   136   143      0   0   0
   136   199      0   0   0
   137   136      0   0   0
   137   138      0   0   1
   137    74      0   0   0
   137   130      0   0   0
   137   144      0   0   0
   137   200      0   0   0
   138   139      0   0   0
   138   137      0   0  -1
   138    75      0   0   0
   138   131      0   0   0
   138   145      0   0   0
   138   201      0   0   0
   139   138      0   0   0
   139   140      0   0   0
   139    76      0   0   0
   139   132      0   0   0
   139   146      0   0   0
   139   202      0   0   0
   140   134      0   0   0
   140   139      0   0   0
   140    77      0   0   0
   140   133      0   0   0
   140   147      0   0   0
   140   203      0   0   0
   141   142      0   0   0
   141   147      0   0   0
   141    78      0   0   0
   141   134      0   0   0
   141   148      0   0   0
   141   204      0   0   0
   142   141      0   0   0
   142   143      0   0   0
   142    79      0   0   0
   142   135      0   0   0
   142   149      0   0   0
   142   205      0   0   0
   143   142      0   0   0
   143   144      0   0   0
   143    80      0   0   0
   143   136      0   0   0
   143   150      0   0   0
   143   206      0   0   0
   144   143      0   0   0
   144   145      0   0   1
   144    81      0   0   0
   144   137      0   0   0
   144   151      0   0   0
   144   207      0   0   0
   145   146      0   0   0
   145   144      0   0  -1
   145    82      0   0   0
   145   138      0   0   0
   145   152      0   0   0
   145   208      0   0   0
   146   145      0   0   0
   146   147      0   0   0
   146    83      0   0   0
   146   139      0   0   0
   146   153      0   0   0
   146   209      0   0   0
   147   141      0   0   0
   147   146      0   0   0
   147    84      0   0   0
   147   140      0   0   0
   147   154      0   0   0
   147   210      0   0   0
   148   149      0   0   0
   148   154      0   0   0
   148    85      0   0   0
   148   141      0   0   0
   148   155      0   0   0
   148   211      0   0   0
   149   148      0   0   0
   149   150      0   0   0
   149    86      0   0   0
   149   142      0   0   0
   149   156      0   0   0
   149   212      0   0   0
   150   149      0   0   0
   150   151      0   0   0
   150    87      0   0   0
   150   143      0   0   0
   150   157      0   0   0
   150   213      0   0   0
   151   150      0   0   0
   151   152      0   0   1
   151    88      0   0   0
   151   144      0   0   0
   151   158      0   0   0
   151   214      0   0   0
   152   153      0   0   0
   152   151      0   0  -1
   152    89      0   0   0
   152   145      0   0   0
   152   159      0   0   0
   152   215      0   0   0
   153   152      0   0   0
   153   154      0   0   0
   153    90      0   0   0
   153   146      0   0   0
   153   160      0   0   0
   153   216      0   0   0
   154   148      0   0   0
   154   153      0   0   0
   154    91      0   0   0
   154   147      0   0   0
   154   161      0   0   0
   154   217      0   0   0
   155   156      0   0   0
   155   161      0   0   0
   155    92      0   0   0
   155   148      0   0   0
   155   218      0   0   0
   155   162      0   1   0
   156   155      0   0   0
   156   157      0   0   0
   156    93      0   0   0
   156   149      0   0   0
   156   219      0   0   0
   156   163      0   1   0
   157   156      0   0   0
   157   158      0   0   0
   157    94      0   0   0
   157   150      0   0   0
   157   220      0   0   0
   157   164      0   1   0
   158   157      0   0   0
   158   159      0   0   1
   158    95      0   0   0
   158   151      0   0   0
   158   221      0   0   0
   158   165      0   1   0
   159   160      0   0   0
   159   158      0   0  -1
   159    96      0   0   0
   159   152      0   0   0
   159   222      0   0   0
   159   166      0   1   0
   160   159      0   0   0
   160   161      0   0   0
   160    97      0   0   0
   160   153      0   0   0
   160   223      0   0   0
   160   167      0   1   0
   161   155      0   0   0
   161   160      0   0   0
   161    98      0   0   0
   161   154      0   0   0
   161   224      0   0   0
   161   168      0   1   0
   162   163      0   0   0
   162   168      0   0   0
   162    99      0   0   0
   162   169      0   0   0
   162   225      0   0   0
   162   155      0  -1   0
   163   162      0   0   0
   163   164      0   0   0
   163   100      0   0   0
   163   170      0   0   0
   163   226      0   0   0
   163   156      0  -1   0
   164   163      0   0   0
   164   165      0   0   0
   164   101      0   0   0
   164   171      0   0   0
   164   227      0   0   0
   164   157      0  -1   0
   165   164      0   0   0
   165   166      0   0   1
   165   102      0   0   0
   165   172      0   0   0
   165   228      0   0   0
   165   158      0  -1   0
   166   167      0   0   0
   166   165      0   0  -1
   166   103      0   0   0
   166   173      0   0   0
   166   229      0   0   0
   166   159      0  -1   0
   167   166      0   0   0
   167   168      0   0   0
   167   104      0   0   0
   167   174      0   0   0
   167   230      0   0   0
   167   160      0  -1   0
   168   162      0   0   0
   168   167      0   0   0
   168   105      0   0   0
   168   175      0   0   0
   168   231      0   0   0
   168   161      0  -1   0
   169   170      0   0   0
   169   175      0   0   0
   169   106      0   0   0
   169   162      0   0   0
   169   176      0   0   0
   169   232      0   0   0
   170   169      0   0   0
   170   171      0   0   0
   170   107      0   0   0
   170   163      0   0   0
   170   177      0   0   0
   170   233      0   0   0
   171   170      0   0   0
   171   172      0   0   0
   171   108      0   0   0
   171   164      0   0   0
   171   178      0   0   0
   171   234      0   0   0
   172   171      0   0   0
   172   173      0   0   1
   172   109      0   0   0
   172   165      0   0   0
   172   179      0   0   0
   172   235      0   0   0
   173   174      0   0   0
   173   172      0   0  -1
   173   110      0   0   0
   173   166      0   0   0
   173   180      0   0   0
   173   236      0   0   0
   174   173      0   0   0
   174   175      0   0   0
   174   111      0   0   0
   174   167      0   0   0
   174   181      0   0   0
   174   237      0   0   0
   175   169      0   0   0
   175   174      0   0   0
   175   112      0   0   0
   175   168      0   0   0
   175   182      0   0   0
   175   238      0   0   0
   176   177      0   0   0
   176   182      0   0   0
   176   113      0   0   0
   176   169      0   0   0
   176   183      0   0   0
   176   239      0   0   0
   177   176      0   0   0
   177   178      0   0   0
   177   114      0   0   0
   177   170      0   0   0
   177   184      0   0   0
   177   240      0   0   0
   178   177      0   0   0
   178   179      0   0   0
   178   115      0   0   0
   178   171      0   0   0
   178   185      0   0   0
   178   241      0   0   0
   179   178      0   0   0
   179   180      0   0   1
   179   116      0   0   0
   179   172      0   0   0
   179   186      0   0   0
   179   242      0   0   0
   180   181      0   0   0
   180   179      0   0  -1
   180   117      0   0   0
   180   173      0   0   0
   180   187      0   0   0
   180   243      0   0   0
   181   180      0   0   0
   181   182      0   0   0
   181   118      0   0   0
   181   174      0   0   0
   181   188      0   0   0
   181   244      0   0   0
   182   176      0   0   0
   182   181      0   0   0
   182   119      0   0   0
   182   175      0   0   0
   182   189      0   0   0
   182   245      0   0   0
   183   184      0   0   0
   183   189      0   0   0
   183   120      0   0   0
   183   127      0   0   0
   183   176      0   0   0
   183   246      0   0   0
   184   183      0   0   0
   184   185      0   0   0
   184   121      0   0   0
   184   128      0   0   0
   184   177      0   0   0
   184   247      0   0   0
   185   184      0   0   0
   185   186      0   0   0
   185   122      0   0   0
   185   129      0   0   0
   185   178      0   0   0
   185   248      0   0   0
   186   185      0   0   0
   186   187      0   0   1
   186   123      0   0   0
   186   130      0   0   0
   186   179      0   0   0
   186   249      0   0   0
   187   188      0   0   0
   187   186      0   0  -1
   187   124      0   0   0
   187   131      0   0   0
   187   180      0   0   0
   187   250      0   0   0
   188   187      0   0   0
   188   189      0   0   0
   188   125      0   0   0
   188   132      0   0   0
   188   181      0   0   0
   188   251      0   0   0
   189   183      0   0   0
   189   188      0   0   0
   189   126      0   0   0
   189   133      0   0   0
   189   182      0   0   0
   189   252      0   0   0
   190   191      0   0   0
   190   196      0   0   0
   190   127      0   0   0
   190   197      0   0   0
   190   246      0   0   0
   190   253      0   0   0
   191   190      0   0   0
   191   192      0   0   0
   191   128      0   0   0
   191   198      0   0   0
   191   247      0   0   0
   191   254      0   0   0
   192   191      0   0   0
   192   193      0   0   0
   192   129      0   0   0
   192   199      0   0   0
   192   248      0   0   0
   192   255      0   0   0
   193   192      0   0   0
   193   194      0   0   1
   193   130      0   0   0
   193   200      0   0   0
   193   249      0   0   0
   193   256      0   0   0
   194   195      0   0   0
   194   193      0   0  -1
   194   131      0   0   0
   194   201      0   0   0
   194   250      0   0   0
   194   257      0   0   0
   195   194      0   0   0
   195   196      0   0   0
   195   132      0   0   0
   195   202      0   0   0
   195   251      0   0   0
   195   258      0   0   0
   196   190      0   0   0
   196   195      0   0   0
   196   133      0   0   0
   196   203      0   0   0
   196   252      0   0   0
   196   259      0   0   0
   197   198      0   0   0
   197   203      0   0   0
   197   134      0   0   0
   197   190      0   0   0
   197   204      0   0   0
   197   260      0   0   0
   198   197      0   0   0
   198   199      0   0   0
   198   135      0   0   0
   198   191      0   0   0
   198   205      0   0   0
   198   261      0   0   0
   199   198      0   0   0
   199   200      0   0   0
   199   136      0   0   0
   199   192      0   0   0
   199   206      0   0   0
   199   262      0   0   0
   200   199      0   0   0
   200   201      0   0   1
   200   137      0   0   0
   200   193      0   0   0
   200   207      0   0   0
   200   263      0   0   0
   201   202      0   0   0
   201   200      0   0  -1
   201   138      0   0   0
   201   194      0   0   0
   201   208      0   0   0
   201   264      0   0   0
   202   201      0   0   0
   202   203      0   0   0
   202   139      0   0   0
   202   195      0   0   0
   202   209      0   0   0
   202   265      0   0   0
   203   197      0   0   0
   203   202      0   0   0
   203   140      0   0   0
   203   196      0   0   0
   203   210      0   0   0
   203   266      0   0   0
   204   205      0   0   0
   204   210      0   0   0
   204   141      0   0   0
   204   197      0   0   0
   204   211      0   0   0
   204   267      0   0   0
   205   204      0   0   0
   205   206      0   0   0
   205   142      0   0   0
   205   198      0   0   0
   205   212      0   0   0
   205   268      0   0   0
   206   205      0   0   0
   206   207      0   0   0
   206   143      0   0   0
   206   199      0   0   0
   206   213      0   0   0
   206   269      0   0   0
   207   206      0   0   0
   207   208      0   0   1
   207   144      0   0   0
   207   200      0   0   0
   207   214      0   0   0
   207   270      0   0   0
   208   209      0   0   0
   208   207      0   0  -1
   208   145      0   0   0
   208   201      0   0   0
   208   215      0   0   0
   208   271      0   0   0
   209   208      0   0   0
   209   210      0   0   0
   209   146      0   0   0
   209   202      0   0   0
   209   216      0   0   0
   209   272      0   0   0
   210   204      0   0   0
   210   209      0   0   0
   210   147      0   0   0
   210   203      0   0   0
   210   217      0   0   0
   210   273      0   0   0
   211   212      0   0   0
   211   217      0   0   0
   211   148      0   0   0
   211   204      0   0   0
   211   218      0   0   0
   211   274      0   0   0
   212   211      0   0   0
   212   213      0   0   0
   212   149      0   0   0
   212   205      0   0   0
   212   219      0   0   0
   212   275      0   0   0
   213   212      0   0   0
   213   214      0   0   0
   213   150      0   0   0
   213   206      0   0   0
   213   220      0   0   0
   213   276      0   0   0
   214   213      0   0   0
   214   215      0   0   1
   214   151      0   0   0
   214   207      0   0   0
   214   221      0   0   0
   214   277      0   0   0
   215   216      0   0   0
   215   214      0   0  -1
   215   152      0   0   0
   215   208      0   0   0
   215   222      0   0   0
   215   278      0   0   0
   216   215      0   0   0
   216   217      0   0   0
   216   153      0   0   0
   216   209      0   0   0
   216   223      0   0   0
   216   279      0   0   0
   217   211      0   0   0
   217   216      0   0   0
   217   154      0   0   0
   217   210      0   0   0
   217   224      0   0   0
   217   280      0   0   0
   218   219      0   0   0
   218   224      0   0   0
   218   155      0   0   0
   218   211      0   0   0
   218   281      0   0   0
   218   225      0   1   0
   219   218      0   0   0
   219   220      0   0   0
   219   156      0   0   0
   219   212      0   0   0
   219   282      0   0   0
   219   226      0   1   0
   220   219      0   0   0
   220   221      0   0   0
   220   157      0   0   0
   220   213      0   0   0
   220   283      0   0   0
   220   227      0   1   0
   221   220      0   0   0
   221   222      0   0   1
   221   158      0   0   0
   221   214      0   0   0
   221   284      0   0   0
   221   228      0   1   0
   222   223      0   0   0
   222   221      0   0  -1
   222   159      0   0   0
   222   215      0   0   0
   222   285      0   0   0
   222   229      0   1   0
   223   222      0   0   0
   223   224      0   0   0
   223   160      0   0   0
   223   216      0   0   0
   223   286      0   0   0
   223   230      0   1   0
   224   218      0   0   0
   224   223      0   0   0
   224   161      0   0   0
   224   217      0   0   0
   224   287      0   0   0
   224   231      0   1   0
   225   226      0   0   0
   225   231      0   0   0
   225   162      0   0   0
   225   232      0   0   0
   225   288      0   0   0
   225   218      0  -1   0
   226   225      0   0   0
   226   227      0   0   0
   226   163      0   0   0
   226   233      0   0   0
   226   289      0   0   0
   226   219      0  -1   0
   227   226      0   0   0
   227   228      0   0   0
   227   164      0   0   0
   227   234      0   0   0
   227   290      0   0   0
   227   220      0  -1   0
   228   227      0   0   0
   228   229      0   0   1
   228   165      0   0   0
   228   235      0   0   0
   228   291      0   0   0
   228   221      0  -1   0
   229   230      0   0   0
   229   228      0   0  -1
   229   166      0   0   0
   229   236      0   0   0
   229   292      0   0   0
   229   222      0  -1   0
   230   229      0   0   0
   230   231      0   0   0
   230   167      0   0   0
   230   237      0   0   0
   230   293      0   0   0
   230   223      0  -1   0
   231   225      0   0   0
   231   230      0   0   0
   231   168      0   0   0
   231   238      0   0   0
   231   294      0   0   0
   231   224      0  -1   0
   232   233      0   0   0
   232   238      0   0   0
   232   169      0   0   0
   232   225      0   0   0
   232   239      0   0   0
   232   295      0   0   0
   233   232      0   0   0
   233   234      0   0   0
   233   170      0   0   0
   233   226      0   0   0
   233   240      0   0   0
   233   296      0   0   0
   234   233      0   0   0
   234   235      0   0   0
   234   171      0   0   0
   234   227      0   0   0
   234   241      0   0   0
   234   297      0   0   0
   235   234      0   0   0
   235   236      0   0   1
   235   172      0   0   0
   235   228      0   0   0
   235   242      0   0   0
   235   298      0   0   0
   236   237      0   0   0
   236   235      0   0  -1
   236   173      0   0   0
   236   229      0   0   0
   236   243      0   0   0
   236   299      0   0   0
   237   236      0   0   0
   237   238      0   0   0
   237   174      0   0   0
   237   230      0   0   0
   237   244      0   0   0
   237   300      0   0   0
   238   232      0   0   0
   238   237      0   0   0
   238   175      0   0   0
   238   231      0   0   0
   238   245      0   0   0
   238   301      0   0   0
   239   240      0   0   0
   239   245      0   0   0
   239   176      0   0   0
   239   232      0   0   0
   239   246      0   0   0
   239   302      0   0   0
   240   239      0   0   0
   240   241      0   0   0
   240   177      0   0   0
   240   233      0   0   0
   240   247      0   0   0
   240   303      0   0   0
   241   240      0   0   0
   241   242      0   0   0
   241   178      0   0   0
   241   234      0   0   0
   241   248      0   0   0
   241   304      0   0   0
   242   241      0   0   0
   242   243      0   0   1
   242   179      0   0   0
   242   235      0   0   0
   242   249      0   0   0
   242   305      0   0   0
   243   244      0   0   0
   243   242      0   0  -1
   243   180      0   0   0
   243   236      0   0   0
   243   250      0   0   0
   243   306      0   0   0
   244   243      0   0   0
   244   245      0   0   0
   244   181      0   0   0
   244   237      0   0   0
   244   251      0   0   0
   244   307      0   0   0
   245   239      0   0   0
   245   244      0   0   0
   245   182      0   0   0
   245   238      0   0   0
   245   252      0   0   0
   245   308      0   0   0
   246   247      0   0   0
   246   252      0   0   0
   246   183      0   0   0
   246   190      0   0   0
   246   239      0   0   0
   246   309      0   0   0
   247   246      0   0   0
   247   248      0   0   0
   247   184      0   0   0
   247   191      0   0   0
   247   240      0   0   0
   247   310      0   0   0
   248   247      0   0   0
   248   249      0   0   0
   248   185      0   0   0
   248   192      0   0   0
   248   241      0   0   0
   248   311      0   0   0
   249   248      0   0   0
   249   250      0   0   1
   249   186      0   0   0
   249   193      0   0   0
   249   242      0   0   0
   249   312      0   0   0
   250   251      0   0   0
   250   249      0   0  -1
   250   187      0   0   0
   250   194      0   0   0
   250   243      0   0   0
   250   313      0   0   0
   251   250      0   0   0
   251   252      0   0   0
   251   188      0   0   0
   251   195      0   0   0
   251   244      0   0   0
   251   314      0   0   0
   252   246      0   0   0
   252   251      0   0   0
   252   189      0   0   0
   252   196      0   0   0
   252   245      0   0   0
   252   315      0   0   0
   253   254      0   0   0
   253   259      0   0   0
   253   190      0   0   0
   253   260      0   0   0
   253   309      0   0   0
   253   316      1   0   0
   254   253      0   0   0
   254   255      0   0   0
   254   191      0   0   0
   254   261      0   0   0
   254   310      0   0   0
   254   317      1   0   0
   255   254      0   0   0
   255   256      0   0   0
   255   192      0   0   0
   255   262      0   0   0
   255   311      0   0   0
   255   318      1   0   0
   256   255      0   0   0
   256   257      0   0   1
   256   193      0   0   0
   256   263      0   0   0
   256   312      0   0   0
   256   319      1   0   0
   257   258      0   0   0
   257   256      0   0  -1
   257   194      0   0   0
   257   264      0   0   0
   257   313      0   0   0
   257   320      1   0   0
   258   257      0   0   0
   258   259      0   0   0
   258   195      0   0   0
   258   265      0   0   0
   258   314      0   0   0
   258   321      1   0   0
   259   253      0   0   0
   259   258      0   0   0
   259   196      0   0   0
   259   266      0   0   0
   259   315      0   0   0
   259   322      1   0   0
   260   261      0   0   0
   260   266      0   0   0
   260   197      0   0   0
   260   253      0   0   0
   260   267      0   0   0
   260   323      1   0   0
   261   260      0   0   0
   261   262      0   0   0
   261   198      0   0   0
   261   254      0   0   0
   261   268      0   0   0
   261   324      1   0   0
   262   261      0   0   0
   262   263      0   0   0
   262   199      0   0   0
   262   255      0   0   0
   262   269      0   0   0
   262   325      1   0   0
   263   262      0   0   0
   263   264      0   0   1
   263   200      0   0   0
   263   256      0   0   0
   263   270      0   0   0
   263   326      1   0   0
   264   265      0   0   0
   264   263      0   0  -1
   264   201      0   0   0
   264   257      0   0   0
   264   271      0   0   0
   264   327      1   0   0
   265   264      0   0   0
   265   266      0   0   0
   265   202      0   0   0
   265   258      0   0   0
   265   272      0   0   0
   265   328      1   0   0
   266   260      0   0   0
   266   265      0   0   0
   266   203      0   0   0
   266   259      0   0   0
   266   273      0   0   0
   266   329      1   0   0
   267   268      0   0   0
   267   273      0   0   0
   267   204      0   0   0
   267   260      0   0   0
   267   274      0   0   0
   267   330      1   0   0
   268   267      0   0   0
   268   269      0   0   0
   268   205      0   0   0
   268   261      0   0   0
   268   275      0   0   0
   268   331      1   0   0
   269   268      0   0   0
   269   270      0   0   0
   269   206      0   0   0
   269   262      0   0   0
   269   276      0   0   0
   269   332      1   0   0
   270   269      0   0   0
   270   271      0   0   1
   270   207      0   0   0
   270   263      0   0   0
   270   277      0   0   0
   270   333      1   0   0
   271   272      0   0   0
   271   270      0   0  -1
   271   208      0   0   0
   271   264      0   0   0
   271   278      0   0   0
   271   334      1   0   0
   272   271      0   0   0
   272   273      0   0   0
   272   209      0   0   0
   272   265      0   0   0
   272   279      0   0   0
   272   335      1   0   0
   273   267      0   0   0
   273   272      0   0   0
   273   210      0   0   0
   273   266      0   0   0
   273   280      0   0   0
   273   336      1   0   0
   274   275      0   0   0
   274   280      0   0   0
   274   211      0   0   0
   274   267      0   0   0
   274   281      0   0   0
   274   337      1   0   0
   275   274      0   0   0
   275   276      0   0   0
   275   212      0   0   0
   275   268      0   0   0
   275   282      0   0   0
   275   338      1   0   0
   276   275      0   0   0
   276   277      0   0   0
   276   213      0   0   0
   276   269      0   0   0
   276   283      0   0   0
   276   339      1   0   0
   277   276      0   0   0
   277   278      0   0   1
   277   214      0   0   0
   277   270      0   0   0
   277   284      0   0   0
   277   340      1   0   0
   278   279      0   0   0
   278   277      0   0  -1
   278   215      0   0   0
   278   271      0   0   0
   278   285      0   0   0
   278   341      1   0   0
   279   278      0   0   0
   279   280      0   0   0
   279   216      0   0   0
   279   272      0   0   0
   279   286      0   0   0
   279   342      1   0   0
   280   274      0   0   0
   280   279      0   0   0
   280   217      0   0   0
   280   273      0   0   0
   280   287      0   0   0
   280   343      1   0   0
   281   282      0   0   0
   281   287      0   0   0
   281   218      0   0   0
   281   274      0   0   0
   281   344      1   0   0
   281   288      0   1   0
   282   281      0   0   0
   282   283      0   0   0
   282   219      0   0   0
   282   275      0   0   0
   282   345      1   0   0
   282   289      0   1   0
   283   282      0   0   0
   283   284      0   0   0
   283   220      0   0   0
   283   276      0   0   0
   283   346      1   0   0
   283   290      0   1   0
   284   283      0   0   0
   284   285      0   0   1
   284   221      0   0   0
   284   277      0   0   0
   284   347      1   0   0
   284   291      0   1   0
   285   286      0   0   0
   285   284      0   0  -1
   285   222      0   0   0
   285   278      0   0   0
   285   348      1   0   0
   285   292      0   1   0
   286   285      0   0   0
   286   287      0   0   0
   286   223      0   0   0
   286   279      0   0   0
   286   349      1   0   0
   286   293      0   1   0
   287   281      0   0   0
   287   286      0   0   0
   287   224      0   0   0
   287   280      0   0   0
   287   350      1   0   0
   287   294      0   1   0
   288   289      0   0   0
   288   294      0   0   0
   288   225      0   0   0
   288   295      0   0   0
   288   351      1   0   0
   288   281      0  -1   0
   289   288      0   0   0
   289   290      0   0   0
   289   226      0   0   0
   289   296      0   0   0
   289   352      1   0   0
   289   282      0  -1   0
   290   289      0   0   0
   290   291      0   0   0
   290   227      0   0   0
   290   297      0   0   0
   290   353      1   0   0
   290   283      0  -1   0
   291   290      0   0   0
   291   292      0   0   1
   291   228      0   0   0
   291   298      0   0   0
   291   354      1   0   0
   291   284      0  -1   0
   292   293      0   0   0
   292   291      0   0  -1
   292   229      0   0   0
   292   299      0   0   0
   292   355      1   0   0
   292   285      0  -1   0
   293   292      0   0   0
   293   294      0   0   0
   293   230      0   0   0
   293   300      0   0   0
   293   356      1   0   0
   293   286      0  -1   0
   294   288      0   0   0
   294   293      0   0   0
[...]
   452   389      0   0   0
   452   445      0   0   0
   452   459      0   0   0
   452   515      0   0   0
   453   454      0   0   0
   453   452      0   0  -1
   453   390      0   0   0
   453   446      0   0   0
   453   460      0   0   0
   453   516      0   0   0
   454   453      0   0   0
   454   455      0   0   0
   454   391      0   0   0
   454   447      0   0   0
   454   461      0   0   0
   454   517      0   0   0
   455   449      0   0   0
   455   454      0   0   0
   455   392      0   0   0
   455   448      0   0   0
   455   462      0   0   0
   455   518      0   0   0
   456   457      0   0   0
   456   462      0   0   0
   456   393      0   0   0
   456   449      0   0   0
   456   463      0   0   0
   456   519      0   0   0
   457   456      0   0   0
   457   458      0   0   0
   457   394      0   0   0
   457   450      0   0   0
   457   464      0   0   0
   457   520      0   0   0
   458   457      0   0   0
   458   459      0   0   0
   458   395      0   0   0
   458   451      0   0   0
   458   465      0   0   0
   458   521      0   0   0
   459   458      0   0   0
   459   460      0   0   1
   459   396      0   0   0
   459   452      0   0   0
   459   466      0   0   0
   459   522      0   0   0
   460   461      0   0   0
   460   459      0   0  -1
   460   397      0   0   0
   460   453      0   0   0
   460   467      0   0   0
   460   523      0   0   0
   461   460      0   0   0
   461   462      0   0   0
   461   398      0   0   0
   461   454      0   0   0
   461   468      0   0   0
   461   524      0   0   0
   462   456      0   0   0
   462   461      0   0   0
   462   399      0   0   0
   462   455      0   0   0
   462   469      0   0   0
   462   525      0   0   0
   463   464      0   0   0
   463   469      0   0   0
   463   400      0   0   0
   463   456      0   0   0
   463   470      0   0   0
   463   526      0   0   0
   464   463      0   0   0
   464   465      0   0   0
   464   401      0   0   0
   464   457      0   0   0
   464   471      0   0   0
   464   527      0   0   0
   465   464      0   0   0
   465   466      0   0   0
   465   402      0   0   0
   465   458      0   0   0
   465   472      0   0   0
   465   528      0   0   0
   466   465      0   0   0
   466   467      0   0   1
   466   403      0   0   0
   466   459      0   0   0
   466   473      0   0   0
   466   529      0   0   0
   467   468      0   0   0
   467   466      0   0  -1
   467   404      0   0   0
   467   460      0   0   0
   467   474      0   0   0
   467   530      0   0   0
   468   467      0   0   0
   468   469      0   0   0
   468   405      0   0   0
   468   461      0   0   0
   468   475      0   0   0
   468   531      0   0   0
   469   463      0   0   0
   469   468      0   0   0
   469   406      0   0   0
   469   462      0   0   0
   469   476      0   0   0
   469   532      0   0   0
   470   471      0   0   0
   470   476      0   0   0
   470   407      0   0   0
   470   463      0   0   0
   470   533      0   0   0
   470   477      0   1   0
   471   470      0   0   0
   471   472      0   0   0
   471   408      0   0   0
   471   464      0   0   0
   471   534      0   0   0
   471   478      0   1   0
   472   471      0   0   0
   472   473      0   0   0
   472   409      0   0   0
   472   465      0   0   0
   472   535      0   0   0
   472   479      0   1   0
   473   472      0   0   0
   473   474      0   0   1
   473   410      0   0   0
   473   466      0   0   0
   473   536      0   0   0
   473   480      0   1   0
   474   475      0   0   0
   474   473      0   0  -1
   474   411      0   0   0
   474   467      0   0   0
   474   537      0   0   0
   474   481      0   1   0
   475   474      0   0   0
   475   476      0   0   0
   475   412      0   0   0
   475   468      0   0   0
   475   538      0   0   0
   475   482      0   1   0
   476   470      0   0   0
   476   475      0   0   0
   476   413      0   0   0
   476   469      0   0   0
   476   539      0   0   0
   476   483      0   1   0
   477   478      0   0   0
   477   483      0   0   0
   477   414      0   0   0
   477   484      0   0   0
   477   540      0   0   0
   477   470      0  -1   0
   478   477      0   0   0
   478   479      0   0   0
   478   415      0   0   0
   478   485      0   0   0
   478   541      0   0   0
   478   471      0  -1   0
   479   478      0   0   0
   479   480      0   0   0
   479   416      0   0   0
   479   486      0   0   0
   479   542      0   0   0
   479   472      0  -1   0
   480   479      0   0   0
   480   481      0   0   1
   480   417      0   0   0
   480   487      0   0   0
   480   543      0   0   0
   480   473      0  -1   0
   481   482      0   0   0
   481   480      0   0  -1
   481   418      0   0   0
   481   488      0   0   0
   481   544      0   0   0
   481   474      0  -1   0
   482   481      0   0   0
   482   483      0   0   0
   482   419      0   0   0
   482   489      0   0   0
   482   545      0   0   0
   482   475      0  -1   0
   483   477      0   0   0
   483   482      0   0   0
   483   420      0   0   0
   483   490      0   0   0
   483   546      0   0   0
   483   476      0  -1   0
   484   485      0   0   0
   484   490      0   0   0
   484   421      0   0   0
   484   477      0   0   0
   484   491      0   0   0
   484   547      0   0   0
   485   484      0   0   0
   485   486      0   0   0
   485   422      0   0   0
   485   478      0   0   0
   485   492      0   0   0
   485   548      0   0   0
   486   485      0   0   0
   486   487      0   0   0
   486   423      0   0   0
   486   479      0   0   0
   486   493      0   0   0
   486   549      0   0   0
   487   486      0   0   0
   487   488      0   0   1
   487   424      0   0   0
   487   480      0   0   0
   487   494      0   0   0
   487   550      0   0   0
   488   489      0   0   0
   488   487      0   0  -1
   488   425      0   0   0
   488   481      0   0   0
   488   495      0   0   0
   488   551      0   0   0
   489   488      0   0   0
   489   490      0   0   0
   489   426      0   0   0
   489   482      0   0   0
   489   496      0   0   0
   489   552      0   0   0
   490   484      0   0   0
   490   489      0   0   0
   490   427      0   0   0
   490   483      0   0   0
   490   497      0   0   0
   490   553      0   0   0
   491   492      0   0   0
   491   497      0   0   0
   491   428      0   0   0
   491   484      0   0   0
   491   498      0   0   0
   491   554      0   0   0
   492   491      0   0   0
   492   493      0   0   0
   492   429      0   0   0
   492   485      0   0   0
   492   499      0   0   0
   492   555      0   0   0
   493   492      0   0   0
   493   494      0   0   0
   493   430      0   0   0
   493   486      0   0   0
   493   500      0   0   0
   493   556      0   0   0
   494   493      0   0   0
   494   495      0   0   1
   494   431      0   0   0
   494   487      0   0   0
   494   501      0   0   0
   494   557      0   0   0
   495   496      0   0   0
   495   494      0   0  -1
   495   432      0   0   0
   495   488      0   0   0
   495   502      0   0   0
   495   558      0   0   0
   496   495      0   0   0
   496   497      0   0   0
   496   433      0   0   0
   496   489      0   0   0
   496   503      0   0   0
   496   559      0   0   0
   497   491      0   0   0
   497   496      0   0   0
   497   434      0   0   0
   497   490      0   0   0
   497   504      0   0   0
   497   560      0   0   0
   498   499      0   0   0
   498   504      0   0   0
   498   435      0   0   0
   498   442      0   0   0
   498   491      0   0   0
   498   561      0   0   0
   499   498      0   0   0
   499   500      0   0   0
   499   436      0   0   0
   499   443      0   0   0
   499   492      0   0   0
   499   562      0   0   0
   500   499      0   0   0
   500   501      0   0   0
   500   437      0   0   0
   500   444      0   0   0
   500   493      0   0   0
   500   563      0   0   0
   501   500      0   0   0
   501   502      0   0   1
   501   438      0   0   0
   501   445      0   0   0
   501   494      0   0   0
   501   564      0   0   0
   502   503      0   0   0
   502   501      0   0  -1
   502   439      0   0   0
   502   446      0   0   0
   502   495      0   0   0
   502   565      0   0   0
   503   502      0   0   0
   503   504      0   0   0
   503   440      0   0   0
   503   447      0   0   0
   503   496      0   0   0
   503   566      0   0   0
   504   498      0   0   0
   504   503      0   0   0
   504   441      0   0   0
   504   448      0   0   0
   504   497      0   0   0
   504   567      0   0   0
   505   506      0   0   0
   505   511      0   0   0
   505     1      0   0   0
   505   442      0   0   0
   505   512      0   0   0
   505   561      0   0   0
   506   505      0   0   0
   506   507      0   0   0
   506     2      0   0   0
   506   443      0   0   0
   506   513      0   0   0
   506   562      0   0   0
   507   506      0   0   0
   507   508      0   0   0
   507     3      0   0   0
   507   444      0   0   0
   507   514      0   0   0
   507   563      0   0   0
   508   507      0   0   0
   508   509      0   0   1
   508     4      0   0   0
   508   445      0   0   0
   508   515      0   0   0
   508   564      0   0   0
   509   510      0   0   0
   509   508      0   0  -1
   509     5      0   0   0
   509   446      0   0   0
   509   516      0   0   0
   509   565      0   0   0
   510   509      0   0   0
   510   511      0   0   0
   510     6      0   0   0
   510   447      0   0   0
   510   517      0   0   0
   510   566      0   0   0
   511   505      0   0   0
   511   510      0   0   0
   511     7      0   0   0
   511   448      0   0   0
   511   518      0   0   0
   511   567      0   0   0
   512   513      0   0   0
   512   518      0   0   0
   512     8      0   0   0
   512   449      0   0   0
   512   505      0   0   0
   512   519      0   0   0
   513   512      0   0   0
   513   514      0   0   0
   513     9      0   0   0
   513   450      0   0   0
   513   506      0   0   0
   513   520      0   0   0
   514   513      0   0   0
   514   515      0   0   0
   514    10      0   0   0
   514   451      0   0   0
   514   507      0   0   0
   514   521      0   0   0
   515   514      0   0   0
   515   516      0   0   1
   515    11      0   0   0
   515   452      0   0   0
   515   508      0   0   0
   515   522      0   0   0
   516   517      0   0   0
   516   515      0   0  -1
   516    12      0   0   0
   516   453      0   0   0
   516   509      0   0   0
   516   523      0   0   0
   517   516      0   0   0
   517   518      0   0   0
   517    13      0   0   0
   517   454      0   0   0
   517   510      0   0   0
   517   524      0   0   0
   518   512      0   0   0
   518   517      0   0   0
   518    14      0   0   0
   518   455      0   0   0
   518   511      0   0   0
   518   525      0   0   0
   519   520      0   0   0
   519   525      0   0   0
   519    15      0   0   0
   519   456      0   0   0
   519   512      0   0   0
   519   526      0   0   0
   520   519      0   0   0
   520   521      0   0   0
   520    16      0   0   0
   520   457      0   0   0
   520   513      0   0   0
   520   527      0   0   0
   521   520      0   0   0
   521   522      0   0   0
   521    17      0   0   0
   521   458      0   0   0
   521   514      0   0   0
   521   528      0   0   0
   522   521      0   0   0
   522   523      0   0   1
   522    18      0   0   0
   522   459      0   0   0
   522   515      0   0   0
   522   529      0   0   0
   523   524      0   0   0
   523   522      0   0  -1
   523    19      0   0   0
   523   460      0   0   0
   523   516      0   0   0
   523   530      0   0   0
   524   523      0   0   0
   524   525      0   0   0
   524    20      0   0   0
   524   461      0   0   0
   524   517      0   0   0
   524   531      0   0   0
   525   519      0   0   0
   525   524      0   0   0
   525    21      0   0   0
   525   462      0   0   0
   525   518      0   0   0
   525   532      0   0   0
   526   527      0   0   0
   526   532      0   0   0
   526    22      0   0   0
   526   463      0   0   0
   526   519      0   0   0
   526   533      0   0   0
   527   526      0   0   0
   527   528      0   0   0
   527    23      0   0   0
   527   464      0   0   0
   527   520      0   0   0
   527   534      0   0   0
   528   527      0   0   0
   528   529      0   0   0
   528    24      0   0   0
   528   465      0   0   0
   528   521      0   0   0
   528   535      0   0   0
   529   528      0   0   0
   529   530      0   0   1
   529    25      0   0   0
   529   466      0   0   0
   529   522      0   0   0
   529   536      0   0   0
   530   531      0   0   0
   530   529      0   0  -1
   530    26      0   0   0
   530   467      0   0   0
   530   523      0   0   0
   530   537      0   0   0
   531   530      0   0   0
   531   532      0   0   0
   531    27      0   0   0
   531   468      0   0   0
   531   524      0   0   0
   531   538      0   0   0
   532   526      0   0   0
   532   531      0   0   0
   532    28      0   0   0
   532   469      0   0   0
   532   525      0   0   0
   532   539      0   0   0
   533   534      0   0   0
   533   539      0   0   0
   533    29      0   0   0
   533   470      0   0   0
   533   526      0   0   0
   533   540      0   1   0
   534   533      0   0   0
   534   535      0   0   0
   534    30      0   0   0
   534   471      0   0   0
   534   527      0   0   0
   534   541      0   1   0
   535   534      0   0   0
   535   536      0   0   0
   535    31      0   0   0
   535   472      0   0   0
   535   528      0   0   0
   535   542      0   1   0
   536   535      0   0   0
   536   537      0   0   1
   536    32      0   0   0
   536   473      0   0   0
   536   529      0   0   0
   536   543      0   1   0
   537   538      0   0   0
   537   536      0   0  -1
   537    33      0   0   0
   537   474      0   0   0
   537   530      0   0   0
   537   544      0   1   0
   538   537      0   0   0
   538   539      0   0   0
   538    34      0   0   0
   538   475      0   0   0
   538   531      0   0   0
   538   545      0   1   0
   539   533      0   0   0
   539   538      0   0   0
   539    35      0   0   0
   539   476      0   0   0
   539   532      0   0   0
   539   546      0   1   0
   540   541      0   0   0
   540   546      0   0   0
   540    36      0   0   0
   540   477      0   0   0
   540   547      0   0   0
   540   533      0  -1   0
   541   540      0   0   0
   541   542      0   0   0
   541    37      0   0   0
   541   478      0   0   0
   541   548      0   0   0
   541   534      0  -1   0
   542   541      0   0   0
   542   543      0   0   0
   542    38      0   0   0
   542   479      0   0   0
   542   549      0   0   0
   542   535      0  -1   0
   543   542      0   0   0
   543   544      0   0   1
   543    39      0   0   0
   543   480      0   0   0
   543   550      0   0   0
   543   536      0  -1   0
   544   545      0   0   0
   544   543      0   0  -1
   544    40      0   0   0
   544   481      0   0   0
   544   551      0   0   0
   544   537      0  -1   0
   545   544      0   0   0
   545   546      0   0   0
   545    41      0   0   0
   545   482      0   0   0
   545   552      0   0   0
   545   538      0  -1   0
   546   540      0   0   0
   546   545      0   0   0
   546    42      0   0   0
   546   483      0   0   0
   546   553      0   0   0
   546   539      0  -1   0
   547   548      0   0   0
   547   553      0   0   0
   547    43      0   0   0
   547   484      0   0   0
   547   540      0   0   0
   547   554      0   0   0
   548   547      0   0   0
   548   549      0   0   0
   548    44      0   0   0
   548   485      0   0   0
   548   541      0   0   0
   548   555      0   0   0
   549   548      0   0   0
   549   550      0   0   0
   549    45      0   0   0
   549   486      0   0   0
   549   542      0   0   0
   549   556      0   0   0
   550   549      0   0   0
   550   551      0   0   1
   550    46      0   0   0
   550   487      0   0   0
   550   543      0   0   0
   550   557      0   0   0
   551   552      0   0   0
   551   550      0   0  -1
   551    47      0   0   0
   551   488      0   0   0
   551   544      0   0   0
   551   558      0   0   0
   552   551      0   0   0
   552   553      0   0   0
   552    48      0   0   0
   552   489      0   0   0
   552   545      0   0   0
   552   559      0   0   0
   553   547      0   0   0
   553   552      0   0   0
   553    49      0   0   0
   553   490      0   0   0
   553   546      0   0   0
   553   560      0   0   0
   554   555      0   0   0
   554   560      0   0   0
   554    50      0   0   0
   554   491      0   0   0
   554   547      0   0   0
   554   561      0   0   0
   555   554      0   0   0
   555   556      0   0   0
   555    51      0   0   0
   555   492      0   0   0
   555   548      0   0   0
   555   562      0   0   0
   556   555      0   0   0
   556   557      0   0   0
   556    52      0   0   0
   556   493      0   0   0
   556   549      0   0   0
   556   563      0   0   0
   557   556      0   0   0
   557   558      0   0   1
   557    53      0   0   0
   557   494      0   0   0
   557   550      0   0   0
   557   564      0   0   0
   558   559      0   0   0
   558   557      0   0  -1
   558    54      0   0   0
   558   495      0   0   0
   558   551      0   0   0
   558   565      0   0   0
   559   558      0   0   0
   559   560      0   0   0
   559    55      0   0   0
   559   496      0   0   0
   559   552      0   0   0
   559   566      0   0   0
   560   554      0   0   0
   560   559      0   0   0
   560    56      0   0   0
   560   497      0   0   0
   560   553      0   0   0
   560   567      0   0   0
   561   562      0   0   0
   561   567      0   0   0
   561    57      0   0   0
   561   498      0   0   0
   561   505      0   0   0
   561   554      0   0   0
   562   561      0   0   0
   562   563      0   0   0
   562    58      0   0   0
   562   499      0   0   0
   562   506      0   0   0
   562   555      0   0   0
   563   562      0   0   0
   563   564      0   0   0
   563    59      0   0   0
   563   500      0   0   0
   563   507      0   0   0
   563   556      0   0   0
   564   563      0   0   0
   564   565      0   0   1
   564    60      0   0   0
   564   501      0   0   0
   564   508      0   0   0
   564   557      0   0   0
   565   566      0   0   0
   565   564      0   0  -1
   565    61      0   0   0
   565   502      0   0   0
   565   509      0   0   0
   565   558      0   0   0
   566   565      0   0   0
   566   567      0   0   0
   566    62      0   0   0
   566   503      0   0   0
   566   510      0   0   0
   566   559      0   0   0
   567   561      0   0   0
   567   566      0   0   0
   567    63      0   0   0
   567   504      0   0   0
   567   511      0   0   0
   567   560      0   0   0
end nnkpts

begin exclude_bands
   8
   1
   2
   3
   4
   5
   6
   7
   8
end exclude_bands

begin bvectors
  0.000000000000000E+000  0.000000000000000E+000  0.250633538424125     
  0.000000000000000E+000  0.000000000000000E+000 -0.250633538424125     
  0.000000000000000E+000  0.278516172125599       0.000000000000000E+000
  0.000000000000000E+000 -0.278516172125599       0.000000000000000E+000
  0.278516172125599       0.000000000000000E+000  0.000000000000000E+000
 -0.278516172125599       0.000000000000000E+000  0.000000000000000E+000
end bvectors
