
     Program PWSCF v.7.0 starts on  2Aug2023 at 15:24:53 

     This program is part of the open-source Quantum ESPRESSO suite
     for quantum simulation of materials; please cite
         "P. Giannozzi et al., J. Phys.:Condens. Matter 21 395502 (2009);
         "P. Giannozzi et al., J. Phys.:Condens. Matter 29 465901 (2017);
         "P. Giannozzi et al., J. Chem. Phys. 152 154105 (2020);
          URL http://www.quantum-espresso.org", 
     in publications or presentations arising from this work. More details at
     http://www.quantum-espresso.org/quote

     Parallel version (MPI), running on    22 processors

     MPI processes distributed on     1 nodes
     R & G space division:  proc/nbgrp/npool/nimage =      22
     35434 MiB available memory on the printing compute node when the environment starts
 
     Waiting for input...
     Reading input from standard input

     Current dimensions of program PWSCF are:
     Max number of different atomic species (ntypx) = 10
     Max number of k-points (npk) =  40000
     Max angular momentum in pseudopotentials (lmaxx) =  4
     file Pt.rel-pbe-n-rrkjus_psl.0.1.UPF: wavefunction(s)  5D renormalized

     Fixed quantization axis for GGA:     1.000000    0.000000    0.000000

     Subspace diagonalization in iterative solution of the eigenvalue problem:
     a serial algorithm will be used

 
     Parallelization info
     --------------------
     sticks:   dense  smooth     PW     G-vecs:    dense   smooth      PW
     Min          74      24      8                 3184      596     102
     Max          75      25      9                 3189      601     104
     Sum        1649     545    177                70151    13173    2261
 
     Using Slab Decomposition
 


     bravais-lattice index     =            6
     lattice parameter (alat)  =       5.1554  a.u.
     unit-cell volume          =     189.8042 (a.u.)^3
     number of atoms/cell      =            2
     number of atomic types    =            2
     number of electrons       =        26.00
     number of Kohn-Sham states=           98
     kinetic-energy cutoff     =      64.0000  Ry
     charge density cutoff     =     782.0000  Ry
     Exchange-correlation= PBE
                           (   1   4   3   4   0   0   0)
     Noncollinear calculation with spin-orbit


     celldm(1)=   5.155443  celldm(2)=   0.000000  celldm(3)=   1.385185
     celldm(4)=   0.000000  celldm(5)=   0.000000  celldm(6)=   0.000000

     crystal axes: (cart. coord. in units of alat)
               a(1) = (   1.000000   0.000000   0.000000 )  
               a(2) = (   0.000000   1.000000   0.000000 )  
               a(3) = (   0.000000   0.000000   1.385185 )  

     reciprocal axes: (cart. coord. in units 2 pi/alat)
               b(1) = (  1.000000  0.000000  0.000000 )  
               b(2) = (  0.000000  1.000000  0.000000 )  
               b(3) = (  0.000000  0.000000  0.721925 )  


     PseudoPot. # 1 for Fe read from file:
     /home2/koretsune/PWSCF/pseudo_psl031/Fe.rel-pbe-spn-rrkjus_psl.0.2.1.UPF
     MD5 check sum: e4688d448a4fb973b820eb5309e921a0
     Pseudo is Ultrasoft + core correction, Zval = 16.0
     Generated using "atomic" code by A. Dal Corso  v.5.0.99 svn rev. 10869
     Using radial grid of 1191 points, 10 beta functions with: 
                l(1) =   0
                l(2) =   0
                l(3) =   1
                l(4) =   1
                l(5) =   1
                l(6) =   1
                l(7) =   2
                l(8) =   2
                l(9) =   2
               l(10) =   2
     Q(r) pseudized with 0 coefficients 


     PseudoPot. # 2 for Pt read from file:
     /home2/koretsune/PWSCF/pseudo_psl031/Pt.rel-pbe-n-rrkjus_psl.0.1.UPF
     MD5 check sum: 75c9b7c8bba3558fb64ef7de01c2f511
     Pseudo is Ultrasoft + core correction, Zval = 10.0
     Generated using "atomic" code by A. Dal Corso  v.5.0.99 svn rev. 10869
     Using radial grid of 1277 points, 10 beta functions with: 
                l(1) =   0
                l(2) =   0
                l(3) =   1
                l(4) =   1
                l(5) =   1
                l(6) =   1
                l(7) =   2
                l(8) =   2
                l(9) =   2
               l(10) =   2
     Q(r) pseudized with 0 coefficients 


     atomic species   valence    mass     pseudopotential
        Fe            16.00    55.84500     Fe( 1.00)
        Pt            10.00   195.08400     Pt( 1.00)

      8 Sym. Ops., with inversion, found


                                    s                        frac. trans.

      isym =  1     identity                                     

 Time Reversal            0
 cryst.   s( 1) = (     1          0          0      )
                  (     0          1          0      )
                  (     0          0          1      )

 cart.    s( 1) = (  1.0000000  0.0000000  0.0000000 )
                  (  0.0000000  1.0000000  0.0000000 )
                  (  0.0000000  0.0000000  1.0000000 )


      isym =  2     180 deg rotation - cart. axis [0,0,1]        

 Time Reversal            1
 cryst.   s( 2) = (    -1          0          0      )
                  (     0         -1          0      )
                  (     0          0          1      )

 cart.    s( 2) = ( -1.0000000  0.0000000  0.0000000 )
                  (  0.0000000 -1.0000000  0.0000000 )
                  (  0.0000000  0.0000000  1.0000000 )


      isym =  3     180 deg rotation - cart. axis [0,1,0]        

 Time Reversal            1
 cryst.   s( 3) = (    -1          0          0      )
                  (     0          1          0      )
                  (     0          0         -1      )

 cart.    s( 3) = ( -1.0000000  0.0000000  0.0000000 )
                  (  0.0000000  1.0000000  0.0000000 )
                  (  0.0000000  0.0000000 -1.0000000 )


      isym =  4     180 deg rotation - cart. axis [1,0,0]        

 Time Reversal            0
 cryst.   s( 4) = (     1          0          0      )
                  (     0         -1          0      )
                  (     0          0         -1      )

 cart.    s( 4) = (  1.0000000  0.0000000  0.0000000 )
                  (  0.0000000 -1.0000000  0.0000000 )
                  (  0.0000000  0.0000000 -1.0000000 )


      isym =  5     inversion                                    

 Time Reversal            0
 cryst.   s( 5) = (    -1          0          0      )
                  (     0         -1          0      )
                  (     0          0         -1      )

 cart.    s( 5) = ( -1.0000000  0.0000000  0.0000000 )
                  (  0.0000000 -1.0000000  0.0000000 )
                  (  0.0000000  0.0000000 -1.0000000 )


      isym =  6     inv. 180 deg rotation - cart. axis [0,0,1]   

 Time Reversal            1
 cryst.   s( 6) = (     1          0          0      )
                  (     0          1          0      )
                  (     0          0         -1      )

 cart.    s( 6) = (  1.0000000  0.0000000  0.0000000 )
                  (  0.0000000  1.0000000  0.0000000 )
                  (  0.0000000  0.0000000 -1.0000000 )


      isym =  7     inv. 180 deg rotation - cart. axis [0,1,0]   

 Time Reversal            1
 cryst.   s( 7) = (     1          0          0      )
                  (     0         -1          0      )
                  (     0          0          1      )

 cart.    s( 7) = (  1.0000000  0.0000000  0.0000000 )
                  (  0.0000000 -1.0000000  0.0000000 )
                  (  0.0000000  0.0000000  1.0000000 )


      isym =  8     inv. 180 deg rotation - cart. axis [1,0,0]   

 Time Reversal            0
 cryst.   s( 8) = (    -1          0          0      )
                  (     0          1          0      )
                  (     0          0          1      )

 cart.    s( 8) = ( -1.0000000  0.0000000  0.0000000 )
                  (  0.0000000  1.0000000  0.0000000 )
                  (  0.0000000  0.0000000  1.0000000 )


     the magnetic double point group is D_2h (mmm)  [C_2h (2/m) ]
     using the double point group C_2h (2/m) 
     there are  8 classes and  4 irreducible representations
     the character table:

       E     -E    C2    -C2   i     -i    s_h   -s_h 
                                                      
G_3+   1.00 -1.00  0.00  0.00  1.00 -1.00  0.00  0.00
G_4+   1.00 -1.00  0.00  0.00  1.00 -1.00  0.00  0.00
G_3-   1.00 -1.00  0.00  0.00 -1.00  1.00  0.00  0.00
G_4-   1.00 -1.00  0.00  0.00 -1.00  1.00  0.00  0.00

     imaginary part

       E     -E    C2    -C2   i     -i    s_h   -s_h 
                                                      
G_3+   0.00  0.00  1.00 -1.00  0.00  0.00  1.00 -1.00
G_4+   0.00  0.00 -1.00  1.00  0.00  0.00 -1.00  1.00
G_3-   0.00  0.00  1.00 -1.00  0.00  0.00 -1.00  1.00
G_4-   0.00  0.00 -1.00  1.00  0.00  0.00  1.00 -1.00

     the symmetry operations in each class and the name of the first element:

     E             1
          identity                                               
     -E           -1
          identity E                                             
     C2            2
          180 deg rotation - cart. axis [1,0,0]                  
     -C2          -2
          180 deg rotation - cart. axis [1,0,0] E                
     i             3
          inversion                                              
     -i           -3
          inversion E                                            
     s_h           4
          inv. 180 deg rotation - cart. axis [1,0,0]             
     -s_h         -4
          inv. 180 deg rotation - cart. axis [1,0,0] E           

   Cartesian axes

     site n.     atom                  positions (alat units)
         1           Fe  tau(   1) = (   0.0000000   0.0000000   0.0000000  )
         2           Pt  tau(   2) = (   0.5000000   0.5000000   0.6925927  )

   Crystallographic axes

     site n.     atom                  positions (cryst. coord.)
         1           Fe  tau(   1) = (  0.0000000  0.0000000  0.0000000  )
         2           Pt  tau(   2) = (  0.5000000  0.5000000  0.5000000  )

     number of k points=   100  Methfessel-Paxton smearing, width (Ry)=  0.0100
                       cart. coord. in units 2pi/alat
        k(    1) = (   0.0000000   0.0000000   0.0000000), wk =   0.0020576
        k(    2) = (   0.0000000   0.0000000   0.1203208), wk =   0.0041152
        k(    3) = (   0.0000000   0.0000000   0.2406417), wk =   0.0041152
        k(    4) = (   0.0000000   0.0000000  -0.3609625), wk =   0.0020576
        k(    5) = (   0.0000000   0.1111111   0.0000000), wk =   0.0041152
        k(    6) = (   0.0000000   0.1111111   0.1203208), wk =   0.0082305
        k(    7) = (   0.0000000   0.1111111   0.2406417), wk =   0.0082305
        k(    8) = (   0.0000000   0.1111111  -0.3609625), wk =   0.0041152
        k(    9) = (   0.0000000   0.2222222   0.0000000), wk =   0.0041152
        k(   10) = (   0.0000000   0.2222222   0.1203208), wk =   0.0082305
        k(   11) = (   0.0000000   0.2222222   0.2406417), wk =   0.0082305
        k(   12) = (   0.0000000   0.2222222  -0.3609625), wk =   0.0041152
        k(   13) = (   0.0000000   0.3333333   0.0000000), wk =   0.0041152
        k(   14) = (   0.0000000   0.3333333   0.1203208), wk =   0.0082305
        k(   15) = (   0.0000000   0.3333333   0.2406417), wk =   0.0082305
        k(   16) = (   0.0000000   0.3333333  -0.3609625), wk =   0.0041152
        k(   17) = (   0.0000000   0.4444444   0.0000000), wk =   0.0041152
        k(   18) = (   0.0000000   0.4444444   0.1203208), wk =   0.0082305
        k(   19) = (   0.0000000   0.4444444   0.2406417), wk =   0.0082305
        k(   20) = (   0.0000000   0.4444444  -0.3609625), wk =   0.0041152
        k(   21) = (   0.1111111   0.1111111   0.0000000), wk =   0.0082305
        k(   22) = (   0.1111111   0.1111111   0.1203208), wk =   0.0164609
        k(   23) = (   0.1111111   0.1111111   0.2406417), wk =   0.0164609
        k(   24) = (   0.1111111   0.1111111  -0.3609625), wk =   0.0082305
        k(   25) = (   0.1111111   0.2222222   0.0000000), wk =   0.0082305
        k(   26) = (   0.1111111   0.2222222   0.1203208), wk =   0.0164609
        k(   27) = (   0.1111111   0.2222222   0.2406417), wk =   0.0164609
        k(   28) = (   0.1111111   0.2222222  -0.3609625), wk =   0.0082305
        k(   29) = (   0.1111111   0.3333333   0.0000000), wk =   0.0082305
        k(   30) = (   0.1111111   0.3333333   0.1203208), wk =   0.0164609
        k(   31) = (   0.1111111   0.3333333   0.2406417), wk =   0.0164609
        k(   32) = (   0.1111111   0.3333333  -0.3609625), wk =   0.0082305
        k(   33) = (   0.1111111   0.4444444   0.0000000), wk =   0.0082305
        k(   34) = (   0.1111111   0.4444444   0.1203208), wk =   0.0164609
        k(   35) = (   0.1111111   0.4444444   0.2406417), wk =   0.0164609
        k(   36) = (   0.1111111   0.4444444  -0.3609625), wk =   0.0082305
        k(   37) = (   0.2222222   0.2222222   0.0000000), wk =   0.0082305
        k(   38) = (   0.2222222   0.2222222   0.1203208), wk =   0.0164609
        k(   39) = (   0.2222222   0.2222222   0.2406417), wk =   0.0164609
        k(   40) = (   0.2222222   0.2222222  -0.3609625), wk =   0.0082305
        k(   41) = (   0.2222222   0.3333333   0.0000000), wk =   0.0082305
        k(   42) = (   0.2222222   0.3333333   0.1203208), wk =   0.0164609
        k(   43) = (   0.2222222   0.3333333   0.2406417), wk =   0.0164609
        k(   44) = (   0.2222222   0.3333333  -0.3609625), wk =   0.0082305
        k(   45) = (   0.2222222   0.4444444   0.0000000), wk =   0.0082305
        k(   46) = (   0.2222222   0.4444444   0.1203208), wk =   0.0164609
        k(   47) = (   0.2222222   0.4444444   0.2406417), wk =   0.0164609
        k(   48) = (   0.2222222   0.4444444  -0.3609625), wk =   0.0082305
        k(   49) = (   0.3333333   0.3333333   0.0000000), wk =   0.0082305
        k(   50) = (   0.3333333   0.3333333   0.1203208), wk =   0.0164609
        k(   51) = (   0.3333333   0.3333333   0.2406417), wk =   0.0164609
        k(   52) = (   0.3333333   0.3333333  -0.3609625), wk =   0.0082305
        k(   53) = (   0.3333333   0.4444444   0.0000000), wk =   0.0082305
        k(   54) = (   0.3333333   0.4444444   0.1203208), wk =   0.0164609
        k(   55) = (   0.3333333   0.4444444   0.2406417), wk =   0.0164609
        k(   56) = (   0.3333333   0.4444444  -0.3609625), wk =   0.0082305
        k(   57) = (   0.4444444   0.4444444   0.0000000), wk =   0.0082305
        k(   58) = (   0.4444444   0.4444444   0.1203208), wk =   0.0164609
        k(   59) = (   0.4444444   0.4444444   0.2406417), wk =   0.0164609
        k(   60) = (   0.4444444   0.4444444  -0.3609625), wk =   0.0082305
        k(   61) = (   0.1111111   0.0000000   0.0000000), wk =   0.0041152
        k(   62) = (   0.1111111   0.0000000  -0.1203208), wk =   0.0082305
        k(   63) = (   0.1111111   0.0000000  -0.2406417), wk =   0.0082305
        k(   64) = (   0.1111111   0.0000000   0.3609625), wk =   0.0041152
        k(   65) = (   0.2222222   0.0000000   0.0000000), wk =   0.0041152
        k(   66) = (   0.2222222   0.0000000  -0.1203208), wk =   0.0082305
        k(   67) = (   0.2222222   0.0000000  -0.2406417), wk =   0.0082305
        k(   68) = (   0.2222222   0.0000000   0.3609625), wk =   0.0041152
        k(   69) = (   0.3333333   0.0000000   0.0000000), wk =   0.0041152
        k(   70) = (   0.3333333   0.0000000  -0.1203208), wk =   0.0082305
        k(   71) = (   0.3333333   0.0000000  -0.2406417), wk =   0.0082305
        k(   72) = (   0.3333333   0.0000000   0.3609625), wk =   0.0041152
        k(   73) = (   0.4444444   0.0000000   0.0000000), wk =   0.0041152
        k(   74) = (   0.4444444   0.0000000  -0.1203208), wk =   0.0082305
        k(   75) = (   0.4444444   0.0000000  -0.2406417), wk =   0.0082305
        k(   76) = (   0.4444444   0.0000000   0.3609625), wk =   0.0041152
        k(   77) = (   0.2222222   0.1111111   0.0000000), wk =   0.0082305
        k(   78) = (   0.2222222   0.1111111  -0.1203208), wk =   0.0164609
        k(   79) = (   0.2222222   0.1111111  -0.2406417), wk =   0.0164609
        k(   80) = (   0.2222222   0.1111111   0.3609625), wk =   0.0082305
        k(   81) = (   0.3333333   0.1111111   0.0000000), wk =   0.0082305
        k(   82) = (   0.3333333   0.1111111  -0.1203208), wk =   0.0164609
        k(   83) = (   0.3333333   0.1111111  -0.2406417), wk =   0.0164609
        k(   84) = (   0.3333333   0.1111111   0.3609625), wk =   0.0082305
        k(   85) = (   0.4444444   0.1111111   0.0000000), wk =   0.0082305
        k(   86) = (   0.4444444   0.1111111  -0.1203208), wk =   0.0164609
        k(   87) = (   0.4444444   0.1111111  -0.2406417), wk =   0.0164609
        k(   88) = (   0.4444444   0.1111111   0.3609625), wk =   0.0082305
        k(   89) = (   0.3333333   0.2222222   0.0000000), wk =   0.0082305
        k(   90) = (   0.3333333   0.2222222  -0.1203208), wk =   0.0164609
        k(   91) = (   0.3333333   0.2222222  -0.2406417), wk =   0.0164609
        k(   92) = (   0.3333333   0.2222222   0.3609625), wk =   0.0082305
        k(   93) = (   0.4444444   0.2222222   0.0000000), wk =   0.0082305
        k(   94) = (   0.4444444   0.2222222  -0.1203208), wk =   0.0164609
        k(   95) = (   0.4444444   0.2222222  -0.2406417), wk =   0.0164609
        k(   96) = (   0.4444444   0.2222222   0.3609625), wk =   0.0082305
        k(   97) = (   0.4444444   0.3333333   0.0000000), wk =   0.0082305
        k(   98) = (   0.4444444   0.3333333  -0.1203208), wk =   0.0164609
        k(   99) = (   0.4444444   0.3333333  -0.2406417), wk =   0.0164609
        k(  100) = (   0.4444444   0.3333333   0.3609625), wk =   0.0082305

                       cryst. coord.
        k(    1) = (   0.0000000   0.0000000   0.0000000), wk =   0.0020576
        k(    2) = (   0.0000000   0.0000000   0.1666667), wk =   0.0041152
        k(    3) = (   0.0000000   0.0000000   0.3333333), wk =   0.0041152
        k(    4) = (   0.0000000   0.0000000  -0.5000000), wk =   0.0020576
        k(    5) = (   0.0000000   0.1111111   0.0000000), wk =   0.0041152
        k(    6) = (   0.0000000   0.1111111   0.1666667), wk =   0.0082305
        k(    7) = (   0.0000000   0.1111111   0.3333333), wk =   0.0082305
        k(    8) = (   0.0000000   0.1111111  -0.5000000), wk =   0.0041152
        k(    9) = (   0.0000000   0.2222222   0.0000000), wk =   0.0041152
        k(   10) = (   0.0000000   0.2222222   0.1666667), wk =   0.0082305
        k(   11) = (   0.0000000   0.2222222   0.3333333), wk =   0.0082305
        k(   12) = (   0.0000000   0.2222222  -0.5000000), wk =   0.0041152
        k(   13) = (   0.0000000   0.3333333   0.0000000), wk =   0.0041152
        k(   14) = (   0.0000000   0.3333333   0.1666667), wk =   0.0082305
        k(   15) = (   0.0000000   0.3333333   0.3333333), wk =   0.0082305
        k(   16) = (   0.0000000   0.3333333  -0.5000000), wk =   0.0041152
        k(   17) = (   0.0000000   0.4444444   0.0000000), wk =   0.0041152
        k(   18) = (   0.0000000   0.4444444   0.1666667), wk =   0.0082305
        k(   19) = (   0.0000000   0.4444444   0.3333333), wk =   0.0082305
        k(   20) = (   0.0000000   0.4444444  -0.5000000), wk =   0.0041152
        k(   21) = (   0.1111111   0.1111111   0.0000000), wk =   0.0082305
        k(   22) = (   0.1111111   0.1111111   0.1666667), wk =   0.0164609
        k(   23) = (   0.1111111   0.1111111   0.3333333), wk =   0.0164609
        k(   24) = (   0.1111111   0.1111111  -0.5000000), wk =   0.0082305
        k(   25) = (   0.1111111   0.2222222   0.0000000), wk =   0.0082305
        k(   26) = (   0.1111111   0.2222222   0.1666667), wk =   0.0164609
        k(   27) = (   0.1111111   0.2222222   0.3333333), wk =   0.0164609
        k(   28) = (   0.1111111   0.2222222  -0.5000000), wk =   0.0082305
        k(   29) = (   0.1111111   0.3333333   0.0000000), wk =   0.0082305
        k(   30) = (   0.1111111   0.3333333   0.1666667), wk =   0.0164609
        k(   31) = (   0.1111111   0.3333333   0.3333333), wk =   0.0164609
        k(   32) = (   0.1111111   0.3333333  -0.5000000), wk =   0.0082305
        k(   33) = (   0.1111111   0.4444444   0.0000000), wk =   0.0082305
        k(   34) = (   0.1111111   0.4444444   0.1666667), wk =   0.0164609
        k(   35) = (   0.1111111   0.4444444   0.3333333), wk =   0.0164609
        k(   36) = (   0.1111111   0.4444444  -0.5000000), wk =   0.0082305
        k(   37) = (   0.2222222   0.2222222   0.0000000), wk =   0.0082305
        k(   38) = (   0.2222222   0.2222222   0.1666667), wk =   0.0164609
        k(   39) = (   0.2222222   0.2222222   0.3333333), wk =   0.0164609
        k(   40) = (   0.2222222   0.2222222  -0.5000000), wk =   0.0082305
        k(   41) = (   0.2222222   0.3333333   0.0000000), wk =   0.0082305
        k(   42) = (   0.2222222   0.3333333   0.1666667), wk =   0.0164609
        k(   43) = (   0.2222222   0.3333333   0.3333333), wk =   0.0164609
        k(   44) = (   0.2222222   0.3333333  -0.5000000), wk =   0.0082305
        k(   45) = (   0.2222222   0.4444444   0.0000000), wk =   0.0082305
        k(   46) = (   0.2222222   0.4444444   0.1666667), wk =   0.0164609
        k(   47) = (   0.2222222   0.4444444   0.3333333), wk =   0.0164609
        k(   48) = (   0.2222222   0.4444444  -0.5000000), wk =   0.0082305
        k(   49) = (   0.3333333   0.3333333   0.0000000), wk =   0.0082305
        k(   50) = (   0.3333333   0.3333333   0.1666667), wk =   0.0164609
        k(   51) = (   0.3333333   0.3333333   0.3333333), wk =   0.0164609
        k(   52) = (   0.3333333   0.3333333  -0.5000000), wk =   0.0082305
        k(   53) = (   0.3333333   0.4444444   0.0000000), wk =   0.0082305
        k(   54) = (   0.3333333   0.4444444   0.1666667), wk =   0.0164609
        k(   55) = (   0.3333333   0.4444444   0.3333333), wk =   0.0164609
        k(   56) = (   0.3333333   0.4444444  -0.5000000), wk =   0.0082305
        k(   57) = (   0.4444444   0.4444444   0.0000000), wk =   0.0082305
        k(   58) = (   0.4444444   0.4444444   0.1666667), wk =   0.0164609
        k(   59) = (   0.4444444   0.4444444   0.3333333), wk =   0.0164609
        k(   60) = (   0.4444444   0.4444444  -0.5000000), wk =   0.0082305
        k(   61) = (   0.1111111   0.0000000   0.0000000), wk =   0.0041152
        k(   62) = (   0.1111111   0.0000000  -0.1666667), wk =   0.0082305
        k(   63) = (   0.1111111   0.0000000  -0.3333333), wk =   0.0082305
        k(   64) = (   0.1111111   0.0000000   0.5000000), wk =   0.0041152
        k(   65) = (   0.2222222   0.0000000   0.0000000), wk =   0.0041152
        k(   66) = (   0.2222222   0.0000000  -0.1666667), wk =   0.0082305
        k(   67) = (   0.2222222   0.0000000  -0.3333333), wk =   0.0082305
        k(   68) = (   0.2222222   0.0000000   0.5000000), wk =   0.0041152
        k(   69) = (   0.3333333   0.0000000   0.0000000), wk =   0.0041152
        k(   70) = (   0.3333333   0.0000000  -0.1666667), wk =   0.0082305
        k(   71) = (   0.3333333   0.0000000  -0.3333333), wk =   0.0082305
        k(   72) = (   0.3333333   0.0000000   0.5000000), wk =   0.0041152
        k(   73) = (   0.4444444   0.0000000   0.0000000), wk =   0.0041152
        k(   74) = (   0.4444444   0.0000000  -0.1666667), wk =   0.0082305
        k(   75) = (   0.4444444   0.0000000  -0.3333333), wk =   0.0082305
        k(   76) = (   0.4444444   0.0000000   0.5000000), wk =   0.0041152
        k(   77) = (   0.2222222   0.1111111   0.0000000), wk =   0.0082305
        k(   78) = (   0.2222222   0.1111111  -0.1666667), wk =   0.0164609
        k(   79) = (   0.2222222   0.1111111  -0.3333333), wk =   0.0164609
        k(   80) = (   0.2222222   0.1111111   0.5000000), wk =   0.0082305
        k(   81) = (   0.3333333   0.1111111   0.0000000), wk =   0.0082305
        k(   82) = (   0.3333333   0.1111111  -0.1666667), wk =   0.0164609
        k(   83) = (   0.3333333   0.1111111  -0.3333333), wk =   0.0164609
        k(   84) = (   0.3333333   0.1111111   0.5000000), wk =   0.0082305
        k(   85) = (   0.4444444   0.1111111   0.0000000), wk =   0.0082305
        k(   86) = (   0.4444444   0.1111111  -0.1666667), wk =   0.0164609
        k(   87) = (   0.4444444   0.1111111  -0.3333333), wk =   0.0164609
        k(   88) = (   0.4444444   0.1111111   0.5000000), wk =   0.0082305
        k(   89) = (   0.3333333   0.2222222   0.0000000), wk =   0.0082305
        k(   90) = (   0.3333333   0.2222222  -0.1666667), wk =   0.0164609
        k(   91) = (   0.3333333   0.2222222  -0.3333333), wk =   0.0164609
        k(   92) = (   0.3333333   0.2222222   0.5000000), wk =   0.0082305
        k(   93) = (   0.4444444   0.2222222   0.0000000), wk =   0.0082305
        k(   94) = (   0.4444444   0.2222222  -0.1666667), wk =   0.0164609
        k(   95) = (   0.4444444   0.2222222  -0.3333333), wk =   0.0164609
        k(   96) = (   0.4444444   0.2222222   0.5000000), wk =   0.0082305
        k(   97) = (   0.4444444   0.3333333   0.0000000), wk =   0.0082305
        k(   98) = (   0.4444444   0.3333333  -0.1666667), wk =   0.0164609
        k(   99) = (   0.4444444   0.3333333  -0.3333333), wk =   0.0164609
        k(  100) = (   0.4444444   0.3333333   0.5000000), wk =   0.0082305

     Dense  grid:    70151 G-vectors     FFT dimensions: (  45,  45,  64)

     Smooth grid:    13173 G-vectors     FFT dimensions: (  27,  27,  40)

     Dynamical RAM for                 wfc:       0.22 MB

     Dynamical RAM for     wfc (w. buffer):      22.35 MB

     Dynamical RAM for           str. fact:       0.10 MB

     Dynamical RAM for           local pot:       0.00 MB

     Dynamical RAM for          nlocal pot:       0.08 MB

     Dynamical RAM for                qrad:      11.75 MB

     Dynamical RAM for          rho,v,vnew:       1.14 MB

     Dynamical RAM for           G-vectors:       0.19 MB

     Dynamical RAM for          h,s,v(r/c):       1.76 MB

     Dynamical RAM for          <psi|beta>:       0.20 MB

     Dynamical RAM for                 psi:       0.44 MB

     Dynamical RAM for                hpsi:       0.44 MB

     Dynamical RAM for                spsi:       0.44 MB

     Dynamical RAM for      wfcinit/wfcrot:       0.55 MB

     Dynamical RAM for           addusdens:      29.88 MB

     Estimated static dynamical RAM per process >      36.12 MB

     Estimated max dynamical RAM per process >      66.00 MB

     Estimated total dynamical RAM >       1.42 GB

     Check: negative core charge=   -0.000005
     Generating pointlists ...
     new r_m :   0.4083 (alat units)  2.1049 (a.u.) for type    1
     new r_m :   0.4083 (alat units)  2.1049 (a.u.) for type    2
     Message from routine read_rhog:
     some spin components not found
 
 -----------
Spin angles Theta, Phi (degree) =  90.0000  0.0000
 -----------

     The potential is recalculated from file :
     ./work/pwscf.save/charge-density

     Starting wfcs are   44 randomized atomic wfcs +   54 random wfcs

     Band Structure Calculation
     Davidson diagonalization with overlap

     Computing kpt #:     1  of   100
     total cpu time spent up to now is        1.5 secs

     Computing kpt #:     2  of   100
     total cpu time spent up to now is        2.3 secs

     Computing kpt #:     3  of   100
     total cpu time spent up to now is        3.1 secs

     Computing kpt #:     4  of   100
     total cpu time spent up to now is        3.8 secs

     Computing kpt #:     5  of   100
     total cpu time spent up to now is        4.6 secs

     Computing kpt #:     6  of   100
     total cpu time spent up to now is        5.4 secs

     Computing kpt #:     7  of   100
     total cpu time spent up to now is        6.1 secs

     Computing kpt #:     8  of   100
     total cpu time spent up to now is        6.9 secs

     Computing kpt #:     9  of   100
     total cpu time spent up to now is        7.6 secs

     Computing kpt #:    10  of   100
     total cpu time spent up to now is        8.3 secs

     Computing kpt #:    11  of   100
     total cpu time spent up to now is        9.1 secs

     Computing kpt #:    12  of   100
     total cpu time spent up to now is        9.9 secs

     Computing kpt #:    13  of   100
     total cpu time spent up to now is       10.7 secs

     Computing kpt #:    14  of   100
     total cpu time spent up to now is       11.5 secs

     Computing kpt #:    15  of   100
     total cpu time spent up to now is       12.2 secs

     Computing kpt #:    16  of   100
     total cpu time spent up to now is       13.1 secs

     Computing kpt #:    17  of   100
     total cpu time spent up to now is       13.9 secs

     Computing kpt #:    18  of   100
     total cpu time spent up to now is       14.7 secs

     Computing kpt #:    19  of   100
     total cpu time spent up to now is       15.5 secs

     Computing kpt #:    20  of   100
     total cpu time spent up to now is       16.3 secs

     Computing kpt #:    21  of   100
     total cpu time spent up to now is       17.1 secs

     Computing kpt #:    22  of   100
     total cpu time spent up to now is       18.0 secs

     Computing kpt #:    23  of   100
     total cpu time spent up to now is       18.7 secs

     Computing kpt #:    24  of   100
     total cpu time spent up to now is       19.5 secs

     Computing kpt #:    25  of   100
     total cpu time spent up to now is       20.4 secs

     Computing kpt #:    26  of   100
     total cpu time spent up to now is       21.2 secs

     Computing kpt #:    27  of   100
     total cpu time spent up to now is       21.9 secs

     Computing kpt #:    28  of   100
     total cpu time spent up to now is       22.7 secs

     Computing kpt #:    29  of   100
     total cpu time spent up to now is       23.6 secs

     Computing kpt #:    30  of   100
     total cpu time spent up to now is       24.3 secs

     Computing kpt #:    31  of   100
     total cpu time spent up to now is       25.1 secs

     Computing kpt #:    32  of   100
     total cpu time spent up to now is       26.0 secs

     Computing kpt #:    33  of   100
     total cpu time spent up to now is       26.8 secs

     Computing kpt #:    34  of   100
     total cpu time spent up to now is       27.7 secs

     Computing kpt #:    35  of   100
     total cpu time spent up to now is       28.5 secs

     Computing kpt #:    36  of   100
     total cpu time spent up to now is       29.4 secs

     Computing kpt #:    37  of   100
     total cpu time spent up to now is       30.2 secs

     Computing kpt #:    38  of   100
     total cpu time spent up to now is       31.0 secs

     Computing kpt #:    39  of   100
     total cpu time spent up to now is       31.8 secs

     Computing kpt #:    40  of   100
     total cpu time spent up to now is       32.6 secs

     Computing kpt #:    41  of   100
     total cpu time spent up to now is       33.4 secs

     Computing kpt #:    42  of   100
     total cpu time spent up to now is       34.1 secs

     Computing kpt #:    43  of   100
     total cpu time spent up to now is       35.0 secs

     Computing kpt #:    44  of   100
     total cpu time spent up to now is       35.8 secs

     Computing kpt #:    45  of   100
     total cpu time spent up to now is       36.6 secs

     Computing kpt #:    46  of   100
     total cpu time spent up to now is       37.4 secs

     Computing kpt #:    47  of   100
     total cpu time spent up to now is       38.2 secs

     Computing kpt #:    48  of   100
     total cpu time spent up to now is       39.0 secs

     Computing kpt #:    49  of   100
     total cpu time spent up to now is       39.9 secs

     Computing kpt #:    50  of   100
     total cpu time spent up to now is       40.7 secs

     Computing kpt #:    51  of   100
     total cpu time spent up to now is       41.5 secs

     Computing kpt #:    52  of   100
     total cpu time spent up to now is       42.4 secs

     Computing kpt #:    53  of   100
     total cpu time spent up to now is       43.3 secs

     Computing kpt #:    54  of   100
     total cpu time spent up to now is       44.2 secs

     Computing kpt #:    55  of   100
     total cpu time spent up to now is       45.1 secs

     Computing kpt #:    56  of   100
     total cpu time spent up to now is       45.9 secs

     Computing kpt #:    57  of   100
     total cpu time spent up to now is       46.8 secs

     Computing kpt #:    58  of   100
     total cpu time spent up to now is       47.7 secs

     Computing kpt #:    59  of   100
     total cpu time spent up to now is       48.5 secs

     Computing kpt #:    60  of   100
     total cpu time spent up to now is       49.3 secs

     Computing kpt #:    61  of   100
     total cpu time spent up to now is       50.0 secs

     Computing kpt #:    62  of   100
     total cpu time spent up to now is       50.8 secs

     Computing kpt #:    63  of   100
     total cpu time spent up to now is       51.5 secs

     Computing kpt #:    64  of   100
     total cpu time spent up to now is       52.3 secs

     Computing kpt #:    65  of   100
     total cpu time spent up to now is       53.0 secs

     Computing kpt #:    66  of   100
     total cpu time spent up to now is       53.7 secs

     Computing kpt #:    67  of   100
     total cpu time spent up to now is       54.5 secs

     Computing kpt #:    68  of   100
     total cpu time spent up to now is       55.3 secs

     Computing kpt #:    69  of   100
     total cpu time spent up to now is       56.1 secs

     Computing kpt #:    70  of   100
     total cpu time spent up to now is       56.9 secs

     Computing kpt #:    71  of   100
     total cpu time spent up to now is       57.6 secs

     Computing kpt #:    72  of   100
     total cpu time spent up to now is       58.5 secs

     Computing kpt #:    73  of   100
     total cpu time spent up to now is       59.3 secs

     Computing kpt #:    74  of   100
     total cpu time spent up to now is       60.1 secs

     Computing kpt #:    75  of   100
     total cpu time spent up to now is       60.8 secs

     Computing kpt #:    76  of   100
     total cpu time spent up to now is       61.6 secs

     Computing kpt #:    77  of   100
     total cpu time spent up to now is       62.5 secs

     Computing kpt #:    78  of   100
     total cpu time spent up to now is       63.2 secs

     Computing kpt #:    79  of   100
     total cpu time spent up to now is       64.0 secs

     Computing kpt #:    80  of   100
     total cpu time spent up to now is       64.8 secs

     Computing kpt #:    81  of   100
     total cpu time spent up to now is       65.7 secs

     Computing kpt #:    82  of   100
     total cpu time spent up to now is       66.5 secs

     Computing kpt #:    83  of   100
     total cpu time spent up to now is       67.3 secs

     Computing kpt #:    84  of   100
     total cpu time spent up to now is       68.2 secs

     Computing kpt #:    85  of   100
     total cpu time spent up to now is       68.9 secs

     Computing kpt #:    86  of   100
     total cpu time spent up to now is       69.8 secs

     Computing kpt #:    87  of   100
     total cpu time spent up to now is       70.6 secs

     Computing kpt #:    88  of   100
     total cpu time spent up to now is       71.4 secs

     Computing kpt #:    89  of   100
     total cpu time spent up to now is       72.2 secs

     Computing kpt #:    90  of   100
     total cpu time spent up to now is       72.9 secs

     Computing kpt #:    91  of   100
     total cpu time spent up to now is       73.8 secs

     Computing kpt #:    92  of   100
     total cpu time spent up to now is       74.6 secs

     Computing kpt #:    93  of   100
     total cpu time spent up to now is       75.4 secs

     Computing kpt #:    94  of   100
     total cpu time spent up to now is       76.3 secs

     Computing kpt #:    95  of   100
     total cpu time spent up to now is       77.1 secs

     Computing kpt #:    96  of   100
     total cpu time spent up to now is       77.9 secs

     Computing kpt #:    97  of   100
     total cpu time spent up to now is       78.7 secs

     Computing kpt #:    98  of   100
     total cpu time spent up to now is       79.6 secs

     Computing kpt #:    99  of   100
     total cpu time spent up to now is       80.5 secs

     Computing kpt #:   100  of   100
     total cpu time spent up to now is       81.3 secs

     ethr =  3.85E-11,  avg # of iterations = 33.7

     total cpu time spent up to now is       81.4 secs

     End of band structure calculation

------
 eband, Ef (eV) =   -110.363029421400        17.0259579933951     
------


          k = 0.0000 0.0000 0.0000 (  1651 PWs)   bands (ev):

   -71.9655 -68.3811 -38.6863 -38.0562 -37.4979 -34.8207 -34.2907 -33.9657
     7.5006   7.6270  10.7009  10.8801  11.2518  11.2594  13.5440  13.6042
    13.9920  14.6249  14.6786  14.9465  15.1846  16.0978  16.2946  16.4224
    16.7763  16.8298  17.6080  18.6410  18.7292  18.8134  18.9647  19.1374
    26.2793  27.1339  28.5646  28.5699  29.4646  29.4648  34.9920  35.1879
    35.6542  36.3338  36.4100  36.9681  39.0116  39.0632  39.6369  39.6380
    39.9590  40.1414  43.8342  44.1272  45.7236  45.7263  46.3555  46.3560
    48.1954  48.3256  50.2785  50.3725  52.1768  52.2893  52.3381  52.3508
    52.7199  53.3104  53.9014  54.8626  56.5307  57.1114  57.5216  57.6441
    59.7681  59.7695  59.9111  59.9118  60.0946  60.1010  60.5993  60.5995
    64.7631  64.8453  67.4578  67.9965  68.0002  68.0792  68.1286  68.1738
    68.3524  68.3643  69.3788  69.3790  70.6966  71.1650  77.2364  77.2466
    77.8839  77.8883

     occupation numbers 
     1.0000   1.0000   1.0000   1.0000   1.0000   1.0000   1.0000   1.0000
     1.0000   1.0000   1.0000   1.0000   1.0000   1.0000   1.0000   1.0000
     1.0000   1.0000   1.0000   1.0000   1.0000   1.0000   1.0000   1.0000
     1.0131   1.0301  -0.0000  -0.0000  -0.0000  -0.0000  -0.0000  -0.0000
    -0.0000  -0.0000  -0.0000  -0.0000  -0.0000  -0.0000  -0.0000  -0.0000
    -0.0000  -0.0000  -0.0000  -0.0000  -0.0000  -0.0000  -0.0000  -0.0000
    -0.0000  -0.0000  -0.0000  -0.0000  -0.0000  -0.0000  -0.0000  -0.0000
    -0.0000  -0.0000  -0.0000  -0.0000  -0.0000  -0.0000  -0.0000  -0.0000
    -0.0000  -0.0000  -0.0000  -0.0000  -0.0000  -0.0000  -0.0000  -0.0000
    -0.0000  -0.0000  -0.0000  -0.0000  -0.0000  -0.0000  -0.0000  -0.0000
    -0.0000  -0.0000  -0.0000  -0.0000  -0.0000  -0.0000  -0.0000  -0.0000
    -0.0000  -0.0000  -0.0000  -0.0000  -0.0000  -0.0000  -0.0000  -0.0000
    -0.0000  -0.0000

          k = 0.0000 0.0000 0.1203 (  1662 PWs)   bands (ev):

   -71.9655 -68.3811 -38.6871 -38.0562 -37.4985 -34.8216 -34.2908 -33.9665
     7.8290   7.9509  10.8340  10.9694  11.3237  11.3589  13.6546  13.7353
    13.8830  14.6209  14.7551  14.9926  15.1139  15.9671  16.1524  16.2006
    16.6452  16.6893  17.2729  17.5554  18.0347  18.4276  18.4602  18.7026
    28.0485  28.6731  29.3311  29.4494  30.1719  30.1736  34.1665  34.4580
    36.2395  36.7856  37.0986  37.3020  38.1954  38.2724  38.6841  38.7104
    39.0463  39.0463  45.4724  45.4773  45.9196  45.9270  46.2595  46.2601
    48.3119  48.4501  49.2216  49.6778  51.6515  52.0557  52.4954  52.5422
    53.9406  53.9418  54.7958  55.3722  55.3755  55.4781  55.5330  55.5398
    55.7836  56.2243  60.4841  60.4900  60.5169  60.8173  64.5592  64.5632
    65.3113  65.3115  66.7162  66.7164  67.8451  67.8604  68.0507  68.3104
    69.6302  70.0149  70.1458  70.7044  73.2927  73.3183  77.3869  77.3870
    77.9433  77.9484

     occupation numbers 
     1.0000   1.0000   1.0000   1.0000   1.0000   1.0000   1.0000   1.0000
     1.0000   1.0000   1.0000   1.0000   1.0000   1.0000   1.0000   1.0000
     1.0000   1.0000   1.0000   1.0000   1.0000   1.0000   1.0000   1.0000
     1.0003   1.0013  -0.0139  -0.0000  -0.0000  -0.0000  -0.0000  -0.0000
    -0.0000  -0.0000  -0.0000  -0.0000  -0.0000  -0.0000  -0.0000  -0.0000
    -0.0000  -0.0000  -0.0000  -0.0000  -0.0000  -0.0000  -0.0000  -0.0000
    -0.0000  -0.0000  -0.0000  -0.0000  -0.0000  -0.0000  -0.0000  -0.0000
    -0.0000  -0.0000  -0.0000  -0.0000  -0.0000  -0.0000  -0.0000  -0.0000
    -0.0000  -0.0000  -0.0000  -0.0000  -0.0000  -0.0000  -0.0000  -0.0000
    -0.0000  -0.0000  -0.0000  -0.0000  -0.0000  -0.0000  -0.0000  -0.0000
    -0.0000  -0.0000  -0.0000  -0.0000  -0.0000  -0.0000  -0.0000  -0.0000
    -0.0000  -0.0000  -0.0000  -0.0000  -0.0000  -0.0000  -0.0000  -0.0000
    -0.0000  -0.0000

          k = 0.0000 0.0000 0.2406 (  1650 PWs)   bands (ev):

   -71.9654 -68.3809 -38.6876 -38.0562 -37.4991 -34.8224 -34.2909 -33.9674
     8.6811   8.7814  11.1103  11.1749  11.4657  11.5658  13.5736  13.9630
    14.0765  14.5018  14.7891  14.9111  15.0476  15.4093  15.4504  15.7543
    15.7662  15.8409  16.5304  16.6508  17.3589  17.8463  17.8558  18.5733
    30.7264  30.8225  31.7148  31.9886  32.0289  32.2537  33.4537  33.9594
    36.0644  36.2516  36.4567  36.8004  37.1602  37.1643  37.2740  37.3920
    38.7597  38.7645  43.6196  44.2590  46.2079  46.2136  46.3663  46.3687
    48.7656  48.9251  50.7707  50.8087  51.0808  51.4696  51.4710  51.5541
    51.5543  51.6779  55.5104  55.5397  55.9279  55.9863  56.0382  56.1969
    56.3288  56.6739  57.1593  57.1627  62.6592  62.8915  63.1831  63.2418
    64.5656  64.5665  67.0782  67.3642  68.7894  69.5443  69.7028  69.7050
    70.1837  70.1872  73.9551  74.4912  74.9206  75.0328  77.3963  77.4196
    77.5284  77.7444

     occupation numbers 
     1.0000   1.0000   1.0000   1.0000   1.0000   1.0000   1.0000   1.0000
     1.0000   1.0000   1.0000   1.0000   1.0000   1.0000   1.0000   1.0000
     1.0000   1.0000   1.0000   1.0000   1.0000   1.0000   1.0000   1.0000
     1.0000   1.0000   1.0000   1.0003  -0.0015  -0.0000  -0.0000  -0.0000
    -0.0000  -0.0000  -0.0000  -0.0000  -0.0000  -0.0000  -0.0000  -0.0000
    -0.0000  -0.0000  -0.0000  -0.0000  -0.0000  -0.0000  -0.0000  -0.0000
    -0.0000  -0.0000  -0.0000  -0.0000  -0.0000  -0.0000  -0.0000  -0.0000
    -0.0000  -0.0000  -0.0000  -0.0000  -0.0000  -0.0000  -0.0000  -0.0000
    -0.0000  -0.0000  -0.0000  -0.0000  -0.0000  -0.0000  -0.0000  -0.0000
    -0.0000  -0.0000  -0.0000  -0.0000  -0.0000  -0.0000  -0.0000  -0.0000
    -0.0000  -0.0000  -0.0000  -0.0000  -0.0000  -0.0000  -0.0000  -0.0000
    -0.0000  -0.0000  -0.0000  -0.0000  -0.0000  -0.0000  -0.0000  -0.0000
    -0.0000  -0.0000

          k = 0.0000 0.0000-0.3610 (  1666 PWs)   bands (ev):

   -71.9654 -68.3809 -38.6886 -38.0562 -37.4997 -34.8235 -34.2909 -33.9682
     9.3194   9.3846  11.2107  11.2972  11.5425  11.6376  13.4190  13.7974
    13.9505  14.2833  14.6555  14.6768  15.1033  15.1347  15.1783  15.3572
    15.3664  15.6166  16.4721  16.6986  17.1564  17.5242  17.5396  18.5120
    32.5606  32.6313  33.1153  33.2218  33.5074  33.7958  34.2117  34.2123
    34.2553  34.2560  34.9742  34.9745  36.9499  37.0384  37.9022  38.6310
    39.4582  39.5190  39.8348  40.4010  47.6491  47.6501  47.7697  47.7697
    48.8936  48.8937  49.0773  49.0774  49.2558  49.4389  50.8793  51.5354
    52.7572  53.1752  54.0453  54.0514  56.1505  56.3062  56.9426  57.2402
    57.9883  58.0130  60.3448  60.3454  60.6095  60.6165  61.4814  61.4845
    63.6719  63.8869  64.9156  65.3506  67.9866  68.8559  72.0640  72.0645
    72.7350  72.7350  75.1490  75.3718  76.8530  76.9480  76.9535  77.0093
    77.1674  77.3288

     occupation numbers 
     1.0000   1.0000   1.0000   1.0000   1.0000   1.0000   1.0000   1.0000
     1.0000   1.0000   1.0000   1.0000   1.0000   1.0000   1.0000   1.0000
     1.0000   1.0000   1.0000   1.0000   1.0000   1.0000   1.0000   1.0000
     1.0000   1.0000   1.0000   1.0017  -0.0203  -0.0000  -0.0000  -0.0000
    -0.0000  -0.0000  -0.0000  -0.0000  -0.0000  -0.0000  -0.0000  -0.0000
    -0.0000  -0.0000  -0.0000  -0.0000  -0.0000  -0.0000  -0.0000  -0.0000
    -0.0000  -0.0000  -0.0000  -0.0000  -0.0000  -0.0000  -0.0000  -0.0000
    -0.0000  -0.0000  -0.0000  -0.0000  -0.0000  -0.0000  -0.0000  -0.0000
    -0.0000  -0.0000  -0.0000  -0.0000  -0.0000  -0.0000  -0.0000  -0.0000
    -0.0000  -0.0000  -0.0000  -0.0000  -0.0000  -0.0000  -0.0000  -0.0000
    -0.0000  -0.0000  -0.0000  -0.0000  -0.0000  -0.0000  -0.0000  -0.0000
    -0.0000  -0.0000  -0.0000  -0.0000  -0.0000  -0.0000  -0.0000  -0.0000
    -0.0000  -0.0000

          k = 0.0000 0.1111 0.0000 (  1645 PWs)   bands (ev):

   -71.9645 -68.3799 -38.6896 -38.0554 -37.5044 -34.8252 -34.2897 -33.9728
     7.8149   7.9431  10.8646  11.0916  11.3615  11.5305  13.4330  13.6847
    14.0497  14.4135  14.6964  14.8491  15.1922  15.6936  16.0412  16.3179
    16.3745  16.6638  17.5427  17.6163  18.5121  18.6756  20.1412  20.7770
    26.0386  26.7492  27.3250  27.8147  29.5115  29.8090  35.2276  35.3049
    35.3560  35.8569  38.1582  38.2881  38.2969  38.8008  39.1581  39.4316
    40.0562  40.1286  44.7926  44.7972  45.4508  45.9917  46.1612  46.5096
    47.5570  47.5793  48.6557  49.3759  51.4061  51.6284  51.7916  52.0002
    53.4770  54.1520  54.7425  54.8112  56.5380  56.8774  57.3523  57.5109
    59.4911  59.6574  60.3031  60.5124  61.3298  61.4184  62.2603  62.2709
    64.5280  64.7520  65.8788  65.9366  66.9591  67.4909  68.4783  69.1416
    69.9192  69.9235  71.9821  72.2248  72.9899  73.1363  74.7361  75.1995
    76.5976  77.2555

     occupation numbers 
     1.0000   1.0000   1.0000   1.0000   1.0000   1.0000   1.0000   1.0000
     1.0000   1.0000   1.0000   1.0000   1.0000   1.0000   1.0000   1.0000
     1.0000   1.0000   1.0000   1.0000   1.0000   1.0000   1.0000   1.0000
     1.0000   1.0005  -0.0000  -0.0000  -0.0000  -0.0000  -0.0000  -0.0000
    -0.0000  -0.0000  -0.0000  -0.0000  -0.0000  -0.0000  -0.0000  -0.0000
    -0.0000  -0.0000  -0.0000  -0.0000  -0.0000  -0.0000  -0.0000  -0.0000
    -0.0000  -0.0000  -0.0000  -0.0000  -0.0000  -0.0000  -0.0000  -0.0000
    -0.0000  -0.0000  -0.0000  -0.0000  -0.0000  -0.0000  -0.0000  -0.0000
    -0.0000  -0.0000  -0.0000  -0.0000  -0.0000  -0.0000  -0.0000  -0.0000
    -0.0000  -0.0000  -0.0000  -0.0000  -0.0000  -0.0000  -0.0000  -0.0000
    -0.0000  -0.0000  -0.0000  -0.0000  -0.0000  -0.0000  -0.0000  -0.0000
    -0.0000  -0.0000  -0.0000  -0.0000  -0.0000  -0.0000  -0.0000  -0.0000
    -0.0000  -0.0000

          k = 0.0000 0.1111 0.1203 (  1647 PWs)   bands (ev):

   -71.9644 -68.3799 -38.6900 -38.0554 -37.5047 -34.8257 -34.2898 -33.9733
     8.1346   8.2607  10.9858  11.1886  11.4364  11.6206  13.4844  13.7726
    13.9934  14.4187  14.6711  14.9077  15.0956  15.3675  15.8835  16.1849
    16.3164  16.6309  16.9402  17.5432  18.2125  18.6300  18.8428  19.7120
    27.2933  27.7661  28.5643  29.1866  30.1762  30.4757  33.9696  34.3063
    36.2885  36.3630  36.6848  36.9975  38.5754  38.9407  39.2189  39.3816
    40.6239  40.8157  43.4820  43.7082  44.9452  45.3553  46.8251  47.0251
    49.1270  49.1674  49.5821  49.9190  50.4474  51.0492  51.1321  51.3246
    52.7288  52.9635  53.4448  53.9985  57.0419  57.1701  57.3200  57.9752
    58.3136  58.5936  59.8140  60.0154  60.7594  61.0782  64.0168  64.0428
    64.2529  64.4586  66.7877  66.8518  67.3368  67.4245  69.4453  70.0282
    71.1255  71.1398  71.7379  72.0730  73.4013  73.5306  76.1664  76.6709
    77.3320  77.6801

     occupation numbers 
     1.0000   1.0000   1.0000   1.0000   1.0000   1.0000   1.0000   1.0000
     1.0000   1.0000   1.0000   1.0000   1.0000   1.0000   1.0000   1.0000
     1.0000   1.0000   1.0000   1.0000   1.0000   1.0000   1.0000   1.0000
     1.0000   1.0002   0.9331  -0.0000  -0.0000  -0.0000  -0.0000  -0.0000
    -0.0000  -0.0000  -0.0000  -0.0000  -0.0000  -0.0000  -0.0000  -0.0000
    -0.0000  -0.0000  -0.0000  -0.0000  -0.0000  -0.0000  -0.0000  -0.0000
    -0.0000  -0.0000  -0.0000  -0.0000  -0.0000  -0.0000  -0.0000  -0.0000
    -0.0000  -0.0000  -0.0000  -0.0000  -0.0000  -0.0000  -0.0000  -0.0000
    -0.0000  -0.0000  -0.0000  -0.0000  -0.0000  -0.0000  -0.0000  -0.0000
    -0.0000  -0.0000  -0.0000  -0.0000  -0.0000  -0.0000  -0.0000  -0.0000
    -0.0000  -0.0000  -0.0000  -0.0000  -0.0000  -0.0000  -0.0000  -0.0000
    -0.0000  -0.0000  -0.0000  -0.0000  -0.0000  -0.0000  -0.0000  -0.0000
    -0.0000  -0.0000

          k = 0.0000 0.1111 0.2406 (  1657 PWs)   bands (ev):

   -71.9644 -68.3798 -38.6909 -38.0557 -37.5056 -34.8268 -34.2901 -33.9744
     8.9680   9.0803  11.2136  11.4112  11.5820  11.7755  13.4260  13.9463
    13.9797  14.3391  14.3554  14.6922  14.9236  15.2034  15.4424  15.7092
    16.0569  16.2563  16.5204  16.7481  17.3634  17.9177  18.3529  18.6182
    28.9908  29.4651  31.5543  31.6767  32.1828  32.3246  32.7595  33.1485
    35.0044  35.2918  36.8498  37.2559  37.6774  37.9161  38.7199  39.0897
    40.3220  40.3982  43.3184  43.8115  45.4284  45.6207  45.8009  46.1033
    48.0468  48.1859  49.2527  49.4162  50.0843  50.2501  52.7417  52.8634
    53.1582  53.6502  54.3508  54.4853  54.9176  55.2354  56.4767  56.9638
    58.0394  58.2987  59.0647  59.5580  62.3667  62.5579  63.1226  63.2918
    64.6442  64.8670  65.7376  66.0212  68.8917  69.3134  70.5337  70.8847
    71.1220  71.2106  73.2414  73.6113  76.0582  76.2510  76.3672  76.7849
    77.1094  77.3092

     occupation numbers 
     1.0000   1.0000   1.0000   1.0000   1.0000   1.0000   1.0000   1.0000
     1.0000   1.0000   1.0000   1.0000   1.0000   1.0000   1.0000   1.0000
     1.0000   1.0000   1.0000   1.0000   1.0000   1.0000   1.0000   1.0000
     1.0000   1.0000   1.0000   1.0070  -0.0013  -0.0000  -0.0000  -0.0000
    -0.0000  -0.0000  -0.0000  -0.0000  -0.0000  -0.0000  -0.0000  -0.0000
    -0.0000  -0.0000  -0.0000  -0.0000  -0.0000  -0.0000  -0.0000  -0.0000
    -0.0000  -0.0000  -0.0000  -0.0000  -0.0000  -0.0000  -0.0000  -0.0000
    -0.0000  -0.0000  -0.0000  -0.0000  -0.0000  -0.0000  -0.0000  -0.0000
    -0.0000  -0.0000  -0.0000  -0.0000  -0.0000  -0.0000  -0.0000  -0.0000
    -0.0000  -0.0000  -0.0000  -0.0000  -0.0000  -0.0000  -0.0000  -0.0000
    -0.0000  -0.0000  -0.0000  -0.0000  -0.0000  -0.0000  -0.0000  -0.0000
    -0.0000  -0.0000  -0.0000  -0.0000  -0.0000  -0.0000  -0.0000  -0.0000
    -0.0000  -0.0000

          k = 0.0000 0.1111-0.3610 (  1664 PWs)   bands (ev):

   -71.9644 -68.3798 -38.6915 -38.0556 -37.5061 -34.8275 -34.2901 -33.9751
     9.6092   9.6918  11.2802  11.4846  11.6620  11.7416  13.3149  13.6580
    13.8885  14.0155  14.5093  14.7110  14.9364  14.9618  15.3658  15.5691
    15.5780  15.9850  16.2709  16.4039  17.4687  17.6569  17.8199  18.5238
    30.7019  30.9627  31.0937  31.5688  33.1657  33.5775  33.9526  34.1367
    34.4807  35.1425  35.8028  36.2827  37.3217  37.3243  38.4749  39.0025
    40.6621  40.8862  41.3059  41.8027  46.4418  46.6665  46.7508  47.0386
    47.5101  47.5934  47.7055  47.7551  49.7387  49.9316  52.0302  52.1371
    53.4813  53.9750  55.4195  55.4207  55.8110  55.9800  57.1264  57.2348
    58.7776  59.1683  59.8089  60.0401  60.5229  60.8710  61.0769  61.3625
    64.4972  64.7909  67.0737  67.5239  68.3777  69.1657  69.7364  69.9854
    71.2456  71.5606  73.6104  73.7302  77.4485  77.7380  77.8827  78.0196
    78.3683  78.7232

     occupation numbers 
     1.0000   1.0000   1.0000   1.0000   1.0000   1.0000   1.0000   1.0000
     1.0000   1.0000   1.0000   1.0000   1.0000   1.0000   1.0000   1.0000
     1.0000   1.0000   1.0000   1.0000   1.0000   1.0000   1.0000   1.0000
     1.0000   1.0000   1.0000   1.0000  -0.0000  -0.0000  -0.0000  -0.0000
    -0.0000  -0.0000  -0.0000  -0.0000  -0.0000  -0.0000  -0.0000  -0.0000
    -0.0000  -0.0000  -0.0000  -0.0000  -0.0000  -0.0000  -0.0000  -0.0000
    -0.0000  -0.0000  -0.0000  -0.0000  -0.0000  -0.0000  -0.0000  -0.0000
    -0.0000  -0.0000  -0.0000  -0.0000  -0.0000  -0.0000  -0.0000  -0.0000
    -0.0000  -0.0000  -0.0000  -0.0000  -0.0000  -0.0000  -0.0000  -0.0000
    -0.0000  -0.0000  -0.0000  -0.0000  -0.0000  -0.0000  -0.0000  -0.0000
    -0.0000  -0.0000  -0.0000  -0.0000  -0.0000  -0.0000  -0.0000  -0.0000
    -0.0000  -0.0000  -0.0000  -0.0000  -0.0000  -0.0000  -0.0000  -0.0000
    -0.0000  -0.0000

          k = 0.0000 0.2222 0.0000 (  1643 PWs)   bands (ev):

   -71.9619 -68.3770 -38.6982 -38.0538 -37.5207 -34.8369 -34.2876 -33.9903
     8.6751   8.8080  11.2213  11.6622  11.7261  12.2347  13.1174  13.6773
    14.0042  14.0971  14.5103  14.6701  15.0712  15.2765  15.5791  15.8408
    16.3315  16.4400  16.6759  17.7087  18.1709  18.4136  22.1790  22.8915
    23.9473  24.4941  26.5404  27.2998  30.9612  31.3650  33.5208  33.9072
    34.8344  35.0885  37.2669  37.4748  38.6701  38.8331  41.3387  41.3806
    41.7344  41.7616  42.9937  43.3945  44.7183  45.2898  45.4604  46.2861
    47.3408  47.5178  50.5479  50.6111  50.8565  50.9645  51.2694  51.2769
    51.5604  52.0489  56.0623  56.4543  57.0657  57.4516  57.9933  58.0132
    58.5603  58.8509  61.8663  62.3142  62.4678  62.5227  63.8562  63.9348
    64.9633  65.0071  65.9864  66.4750  68.3557  68.5353  70.7015  71.2299
    71.7758  72.0046  72.0339  72.7042  73.7396  73.8783  73.9333  74.3476
    75.4432  76.1660

     occupation numbers 
     1.0000   1.0000   1.0000   1.0000   1.0000   1.0000   1.0000   1.0000
     1.0000   1.0000   1.0000   1.0000   1.0000   1.0000   1.0000   1.0000
     1.0000   1.0000   1.0000   1.0000   1.0000   1.0000   1.0000   1.0000
     1.0000   1.0000   1.0008  -0.0000  -0.0000  -0.0000  -0.0000  -0.0000
    -0.0000  -0.0000  -0.0000  -0.0000  -0.0000  -0.0000  -0.0000  -0.0000
    -0.0000  -0.0000  -0.0000  -0.0000  -0.0000  -0.0000  -0.0000  -0.0000
    -0.0000  -0.0000  -0.0000  -0.0000  -0.0000  -0.0000  -0.0000  -0.0000
    -0.0000  -0.0000  -0.0000  -0.0000  -0.0000  -0.0000  -0.0000  -0.0000
    -0.0000  -0.0000  -0.0000  -0.0000  -0.0000  -0.0000  -0.0000  -0.0000
    -0.0000  -0.0000  -0.0000  -0.0000  -0.0000  -0.0000  -0.0000  -0.0000
    -0.0000  -0.0000  -0.0000  -0.0000  -0.0000  -0.0000  -0.0000  -0.0000
    -0.0000  -0.0000  -0.0000  -0.0000  -0.0000  -0.0000  -0.0000  -0.0000
    -0.0000  -0.0000

          k = 0.0000 0.2222 0.1203 (  1635 PWs)   bands (ev):

   -71.9619 -68.3769 -38.6982 -38.0537 -37.5208 -34.8370 -34.2875 -33.9905
     8.9450   9.0877  11.2887  11.6978  11.8558  12.3457  13.1439  13.6341
    13.9196  14.0519  14.2938  14.7955  14.9986  15.2017  15.4139  15.8459
    16.2567  16.4051  16.5439  17.6202  17.9642  18.6130  20.3720  21.2973
    24.4794  25.0498  28.7447  29.3763  31.4807  31.7207  32.0586  32.3440
    35.9221  36.0007  36.1123  36.3753  39.8745  40.0893  40.6428  40.8583
    42.6188  42.6796  42.7308  43.1911  43.3407  43.7943  45.8542  45.9883
    48.0889  48.5115  48.8961  49.0479  49.9914  50.2512  52.1896  52.5088
    52.8576  52.8662  54.4449  55.0552  57.6625  57.8676  58.4465  58.5852
    59.1550  59.2214  60.9486  61.0115  61.6343  61.6757  62.9181  63.3320
    66.6171  66.7473  67.1290  67.5167  68.4612  68.7402  69.8131  69.9822
    71.8804  72.4181  73.1449  73.1685  73.6671  73.7625  74.2586  74.6475
    76.4835  76.5568

     occupation numbers 
     1.0000   1.0000   1.0000   1.0000   1.0000   1.0000   1.0000   1.0000
     1.0000   1.0000   1.0000   1.0000   1.0000   1.0000   1.0000   1.0000
     1.0000   1.0000   1.0000   1.0000   1.0000   1.0000   1.0000   1.0000
     1.0000   1.0000   1.0000  -0.0000  -0.0000  -0.0000  -0.0000  -0.0000
    -0.0000  -0.0000  -0.0000  -0.0000  -0.0000  -0.0000  -0.0000  -0.0000
    -0.0000  -0.0000  -0.0000  -0.0000  -0.0000  -0.0000  -0.0000  -0.0000
    -0.0000  -0.0000  -0.0000  -0.0000  -0.0000  -0.0000  -0.0000  -0.0000
    -0.0000  -0.0000  -0.0000  -0.0000  -0.0000  -0.0000  -0.0000  -0.0000
    -0.0000  -0.0000  -0.0000  -0.0000  -0.0000  -0.0000  -0.0000  -0.0000
    -0.0000  -0.0000  -0.0000  -0.0000  -0.0000  -0.0000  -0.0000  -0.0000
    -0.0000  -0.0000  -0.0000  -0.0000  -0.0000  -0.0000  -0.0000  -0.0000
    -0.0000  -0.0000  -0.0000  -0.0000  -0.0000  -0.0000  -0.0000  -0.0000
    -0.0000  -0.0000

          k = 0.0000 0.2222 0.2406 (  1645 PWs)   bands (ev):

   -71.9619 -68.3769 -38.6987 -38.0540 -37.5212 -34.8376 -34.2879 -33.9912
     9.6316   9.8012  11.3298  11.6906  12.1748  12.5161  13.1186  13.6118
    13.8712  13.9551  14.0238  14.5774  14.9694  15.1499  15.5025  15.6871
    15.7264  16.2916  16.5163  17.5568  17.8141  18.0224  18.6814  19.2429
    25.8851  26.4825  29.7485  30.2962  32.1357  32.4916  33.1062  33.4097
    35.0603  35.2261  36.7982  36.9011  37.8792  38.3100  40.9229  41.3477
    42.0774  42.3832  43.6871  43.9123  44.0804  44.2597  44.8247  45.0753
    47.3258  47.4482  47.9105  47.9759  50.0341  50.4126  51.8208  52.4736
    53.0174  53.1700  55.2545  55.5062  57.3047  57.5475  58.2371  58.5563
    60.4077  60.6003  61.1424  61.1756  61.8112  62.2253  62.6147  63.1001
    64.2442  64.3016  66.4468  66.8195  69.3613  69.6902  70.6782  71.1635
    71.6862  71.7977  72.8732  73.2452  74.9993  75.3465  76.2554  76.4142
    76.5251  76.7317

     occupation numbers 
     1.0000   1.0000   1.0000   1.0000   1.0000   1.0000   1.0000   1.0000
     1.0000   1.0000   1.0000   1.0000   1.0000   1.0000   1.0000   1.0000
     1.0000   1.0000   1.0000   1.0000   1.0000   1.0000   1.0000   1.0000
     1.0000   1.0000   1.0000  -0.0000  -0.0000  -0.0000  -0.0000  -0.0000
    -0.0000  -0.0000  -0.0000  -0.0000  -0.0000  -0.0000  -0.0000  -0.0000
    -0.0000  -0.0000  -0.0000  -0.0000  -0.0000  -0.0000  -0.0000  -0.0000
    -0.0000  -0.0000  -0.0000  -0.0000  -0.0000  -0.0000  -0.0000  -0.0000
    -0.0000  -0.0000  -0.0000  -0.0000  -0.0000  -0.0000  -0.0000  -0.0000
    -0.0000  -0.0000  -0.0000  -0.0000  -0.0000  -0.0000  -0.0000  -0.0000
    -0.0000  -0.0000  -0.0000  -0.0000  -0.0000  -0.0000  -0.0000  -0.0000
    -0.0000  -0.0000  -0.0000  -0.0000  -0.0000  -0.0000  -0.0000  -0.0000
    -0.0000  -0.0000  -0.0000  -0.0000  -0.0000  -0.0000  -0.0000  -0.0000
    -0.0000  -0.0000

          k = 0.0000 0.2222-0.3610 (  1656 PWs)   bands (ev):

   -71.9619 -68.3769 -38.6991 -38.0542 -37.5216 -34.8381 -34.2880 -33.9917
    10.1590  10.3442  11.2023  11.5477  12.2644  12.4864  13.3253  13.5473
    13.7957  13.9480  14.1743  14.4181  14.8285  15.0486  15.3471  15.9044
    15.9222  16.2460  16.2512  16.3745  17.9405  18.0733  18.1664  18.5633
    27.4550  27.9255  28.0104  28.7440  33.4696  33.7483  34.9707  35.1516
    35.2987  35.6686  36.2318  36.3123  37.2437  37.6138  38.4126  38.8961
    43.4957  43.7020  43.9701  44.1168  44.2490  44.7024  44.9606  45.1560
    46.8778  46.9249  47.8610  47.8862  48.9121  49.1066  50.5245  50.7818
    54.4828  54.9957  56.1243  56.7602  58.3160  58.5846  58.8052  59.0983
    59.8721  60.0597  60.2617  60.3525  60.3661  60.4431  62.9040  63.1482
    65.5084  65.7727  67.3349  67.4471  69.0645  69.4134  69.6140  69.8226
    70.5788  70.7808  70.8382  71.2106  75.1407  75.5534  76.9896  77.2803
    78.8004  79.1946

     occupation numbers 
     1.0000   1.0000   1.0000   1.0000   1.0000   1.0000   1.0000   1.0000
     1.0000   1.0000   1.0000   1.0000   1.0000   1.0000   1.0000   1.0000
     1.0000   1.0000   1.0000   1.0000   1.0000   1.0000   1.0000   1.0000
     1.0000   1.0000   1.0000   1.0000  -0.0000  -0.0000  -0.0000  -0.0000
    -0.0000  -0.0000  -0.0000  -0.0000  -0.0000  -0.0000  -0.0000  -0.0000
    -0.0000  -0.0000  -0.0000  -0.0000  -0.0000  -0.0000  -0.0000  -0.0000
    -0.0000  -0.0000  -0.0000  -0.0000  -0.0000  -0.0000  -0.0000  -0.0000
    -0.0000  -0.0000  -0.0000  -0.0000  -0.0000  -0.0000  -0.0000  -0.0000
    -0.0000  -0.0000  -0.0000  -0.0000  -0.0000  -0.0000  -0.0000  -0.0000
    -0.0000  -0.0000  -0.0000  -0.0000  -0.0000  -0.0000  -0.0000  -0.0000
    -0.0000  -0.0000  -0.0000  -0.0000  -0.0000  -0.0000  -0.0000  -0.0000
    -0.0000  -0.0000  -0.0000  -0.0000  -0.0000  -0.0000  -0.0000  -0.0000
    -0.0000  -0.0000

          k = 0.0000 0.3333 0.0000 (  1631 PWs)   bands (ev):

   -71.9590 -68.3737 -38.7081 -38.0519 -37.5387 -34.8509 -34.2850 -34.0092
     9.8279   9.9633  11.7079  12.0766  12.2990  12.7007  12.8231  13.4095
    13.8399  13.9362  14.2984  14.5310  14.9855  14.9946  15.5510  16.0038
    16.0051  16.1472  16.3260  17.8286  18.0914  18.1261  21.3342  22.0312
    24.4758  25.2170  26.6359  27.3444  31.3374  31.7097  32.7313  33.0296
    33.3844  33.6222  36.5426  36.7963  38.8520  38.8527  40.0253  40.0276
    41.4087  41.9561  43.9278  44.4800  44.8822  45.3124  47.3508  47.3690
    47.6547  48.0709  50.2817  50.3276  50.5007  50.5240  50.5856  51.0686
    54.7317  54.7546  54.9923  55.2441  56.3515  56.5467  58.7256  58.9271
    59.8590  60.5199  61.4479  61.6864  62.7310  62.9413  65.2765  65.8090
    66.1049  66.6308  67.2257  67.6883  67.7304  68.0178  69.7008  69.7240
    74.4923  74.5102  74.8158  75.1420  75.2714  75.3102  75.3610  75.5147
    75.6142  75.8960

     occupation numbers 
     1.0000   1.0000   1.0000   1.0000   1.0000   1.0000   1.0000   1.0000
     1.0000   1.0000   1.0000   1.0000   1.0000   1.0000   1.0000   1.0000
     1.0000   1.0000   1.0000   1.0000   1.0000   1.0000   1.0000   1.0000
     1.0000   1.0000   1.0000  -0.0000  -0.0000  -0.0000  -0.0000  -0.0000
    -0.0000  -0.0000  -0.0000  -0.0000  -0.0000  -0.0000  -0.0000  -0.0000
    -0.0000  -0.0000  -0.0000  -0.0000  -0.0000  -0.0000  -0.0000  -0.0000
    -0.0000  -0.0000  -0.0000  -0.0000  -0.0000  -0.0000  -0.0000  -0.0000
    -0.0000  -0.0000  -0.0000  -0.0000  -0.0000  -0.0000  -0.0000  -0.0000
    -0.0000  -0.0000  -0.0000  -0.0000  -0.0000  -0.0000  -0.0000  -0.0000
    -0.0000  -0.0000  -0.0000  -0.0000  -0.0000  -0.0000  -0.0000  -0.0000
    -0.0000  -0.0000  -0.0000  -0.0000  -0.0000  -0.0000  -0.0000  -0.0000
    -0.0000  -0.0000  -0.0000  -0.0000  -0.0000  -0.0000  -0.0000  -0.0000
    -0.0000  -0.0000

          k = 0.0000 0.3333 0.1203 (  1640 PWs)   bands (ev):

   -71.9590 -68.3737 -38.7082 -38.0521 -37.5388 -34.8510 -34.2853 -34.0094
     9.9442  10.1287  11.5722  11.9328  12.3821  12.7758  13.1063  13.6326
    13.8279  13.9675  14.0294  14.5606  14.8749  15.1607  15.4788  15.8898
    16.0414  16.2145  16.4151  17.8138  18.0362  18.3781  21.1674  21.8646
    22.5912  23.4841  28.7526  29.3958  29.9553  30.4343  33.4420  33.8937
    34.6044  34.8701  36.1629  36.2517  37.8780  38.1299  40.7569  41.3816
    42.0082  42.0718  42.5569  42.8611  46.1981  46.2961  46.6836  46.9299
    47.2024  47.4154  48.8518  49.0730  49.8457  50.1572  51.8928  52.4938
    55.1921  55.4152  56.3432  56.4250  56.6218  56.8147  57.2187  57.7111
    58.5536  58.6299  62.6101  63.0848  64.0418  64.4073  65.4005  65.4134
    65.8557  66.0581  67.1765  67.6507  68.7998  69.0704  70.5090  70.9569
    72.0212  72.0622  72.6090  72.6836  72.8071  73.2470  74.8429  75.2653
    76.2881  76.4734

     occupation numbers 
     1.0000   1.0000   1.0000   1.0000   1.0000   1.0000   1.0000   1.0000
     1.0000   1.0000   1.0000   1.0000   1.0000   1.0000   1.0000   1.0000
     1.0000   1.0000   1.0000   1.0000   1.0000   1.0000   1.0000   1.0000
     1.0000   1.0000   1.0000  -0.0000  -0.0000  -0.0000  -0.0000  -0.0000
    -0.0000  -0.0000  -0.0000  -0.0000  -0.0000  -0.0000  -0.0000  -0.0000
    -0.0000  -0.0000  -0.0000  -0.0000  -0.0000  -0.0000  -0.0000  -0.0000
    -0.0000  -0.0000  -0.0000  -0.0000  -0.0000  -0.0000  -0.0000  -0.0000
    -0.0000  -0.0000  -0.0000  -0.0000  -0.0000  -0.0000  -0.0000  -0.0000
    -0.0000  -0.0000  -0.0000  -0.0000  -0.0000  -0.0000  -0.0000  -0.0000
    -0.0000  -0.0000  -0.0000  -0.0000  -0.0000  -0.0000  -0.0000  -0.0000
    -0.0000  -0.0000  -0.0000  -0.0000  -0.0000  -0.0000  -0.0000  -0.0000
    -0.0000  -0.0000  -0.0000  -0.0000  -0.0000  -0.0000  -0.0000  -0.0000
    -0.0000  -0.0000

          k = 0.0000 0.3333 0.2406 (  1639 PWs)   bands (ev):

   -71.9590 -68.3737 -38.7083 -38.0521 -37.5389 -34.8510 -34.2852 -34.0096
    10.2172  10.5084  11.1570  11.5261  12.8813  13.2816  13.5703  13.6420
    13.8928  14.1012  14.1982  14.2806  14.7344  15.2467  15.6927  15.7119
    15.8508  16.3935  16.5220  17.9200  18.1130  18.5582  18.7940  19.8856
    23.2436  24.0067  26.9388  27.6130  32.8778  33.2154  34.4609  34.8612
    34.9657  35.1032  35.7840  35.9886  38.5654  38.8014  39.6336  39.8599
    42.2957  42.3810  42.8084  42.8296  44.2039  44.4122  46.1790  46.3724
    47.0739  47.0810  49.1111  49.3731  50.5870  50.9581  51.9273  52.4797
    53.5699  53.9926  55.4129  55.8982  58.0460  58.3197  59.0394  59.1077
    61.2118  61.4957  61.5867  61.6386  63.8211  64.2287  64.5796  64.9736
    65.7222  66.0463  67.7942  68.0098  68.8714  69.2670  69.5503  69.8716
    69.9665  70.2096  71.3613  71.7020  72.3147  72.3414  74.9062  75.1225
    76.7932  77.1260

     occupation numbers 
     1.0000   1.0000   1.0000   1.0000   1.0000   1.0000   1.0000   1.0000
     1.0000   1.0000   1.0000   1.0000   1.0000   1.0000   1.0000   1.0000
     1.0000   1.0000   1.0000   1.0000   1.0000   1.0000   1.0000   1.0000
     1.0000   1.0000   1.0000  -0.0000  -0.0000  -0.0000  -0.0000  -0.0000
    -0.0000  -0.0000  -0.0000  -0.0000  -0.0000  -0.0000  -0.0000  -0.0000
    -0.0000  -0.0000  -0.0000  -0.0000  -0.0000  -0.0000  -0.0000  -0.0000
    -0.0000  -0.0000  -0.0000  -0.0000  -0.0000  -0.0000  -0.0000  -0.0000
    -0.0000  -0.0000  -0.0000  -0.0000  -0.0000  -0.0000  -0.0000  -0.0000
    -0.0000  -0.0000  -0.0000  -0.0000  -0.0000  -0.0000  -0.0000  -0.0000
    -0.0000  -0.0000  -0.0000  -0.0000  -0.0000  -0.0000  -0.0000  -0.0000
    -0.0000  -0.0000  -0.0000  -0.0000  -0.0000  -0.0000  -0.0000  -0.0000
    -0.0000  -0.0000  -0.0000  -0.0000  -0.0000  -0.0000  -0.0000  -0.0000
    -0.0000  -0.0000

          k = 0.0000 0.3333-0.3610 (  1642 PWs)   bands (ev):

   -71.9591 -68.3737 -38.7082 -38.0523 -37.5388 -34.8509 -34.2854 -34.0096
    10.4557  10.8120  10.8401  11.2058  13.2672  13.4870  13.6586  13.7492
    13.9467  14.1728  14.3140  14.5030  14.7599  15.1189  15.4523  16.0786
    16.3879  16.4041  16.5294  16.6299  18.2247  18.3833  18.5224  18.6242
    24.4020  25.0052  25.4340  26.2822  33.8775  33.9260  34.8572  34.9752
    35.5982  36.3336  36.7091  36.7540  38.0166  38.3902  38.6084  38.8908
    41.3390  41.9767  42.4941  43.0278  45.5084  45.5329  45.9306  45.9571
    46.0820  46.2434  48.0076  48.0534  50.5313  50.8896  52.6116  53.0221
    55.0491  55.4241  55.8347  56.6175  57.3567  57.8294  57.8690  58.1490
    62.4170  62.6189  62.8753  63.1397  64.2804  64.6191  64.6959  64.7682
    65.3049  65.4221  66.0752  66.0964  69.0612  69.2947  69.4638  69.6013
    69.8264  70.4125  70.5767  70.7162  71.1559  71.5253  72.7353  73.3172
    79.9783  80.4790

     occupation numbers 
     1.0000   1.0000   1.0000   1.0000   1.0000   1.0000   1.0000   1.0000
     1.0000   1.0000   1.0000   1.0000   1.0000   1.0000   1.0000   1.0000
     1.0000   1.0000   1.0000   1.0000   1.0000   1.0000   1.0000   1.0000
     1.0000   1.0000   1.0000   1.0002  -0.0000  -0.0000  -0.0000  -0.0000
    -0.0000  -0.0000  -0.0000  -0.0000  -0.0000  -0.0000  -0.0000  -0.0000
    -0.0000  -0.0000  -0.0000  -0.0000  -0.0000  -0.0000  -0.0000  -0.0000
    -0.0000  -0.0000  -0.0000  -0.0000  -0.0000  -0.0000  -0.0000  -0.0000
    -0.0000  -0.0000  -0.0000  -0.0000  -0.0000  -0.0000  -0.0000  -0.0000
    -0.0000  -0.0000  -0.0000  -0.0000  -0.0000  -0.0000  -0.0000  -0.0000
    -0.0000  -0.0000  -0.0000  -0.0000  -0.0000  -0.0000  -0.0000  -0.0000
    -0.0000  -0.0000  -0.0000  -0.0000  -0.0000  -0.0000  -0.0000  -0.0000
    -0.0000  -0.0000  -0.0000  -0.0000  -0.0000  -0.0000  -0.0000  -0.0000
    -0.0000  -0.0000

          k = 0.0000 0.4444 0.0000 (  1636 PWs)   bands (ev):

   -71.9571 -68.3715 -38.7148 -38.0512 -37.5502 -34.8605 -34.2839 -34.0211
    10.7599  10.8845  12.0734  12.2955  12.4232  12.7294  12.8483  13.5465
    13.5480  13.6349  14.3913  14.5375  14.6775  14.7669  15.6915  15.8277
    15.8765  16.1819  16.8634  17.6354  17.8271  18.9423  19.4776  20.2085
    26.4960  27.2747  27.2981  28.0029  29.5058  29.8421  30.4832  31.1291
    35.3749  35.4057  35.9500  36.1941  37.7962  37.8750  38.6484  39.3753
    41.9928  42.0571  43.4443  43.9880  44.7283  44.7660  47.9148  48.2211
    49.5444  50.1067  50.2276  50.2812  51.4188  51.7150  53.2115  53.6060
    53.8373  53.9232  55.4602  55.8664  56.1053  56.1320  57.9950  58.0858
    58.8337  59.3098  62.0152  62.1995  63.0056  63.6519  63.8019  63.9060
    67.6808  68.0290  68.4059  69.0174  69.7557  69.7605  70.4904  71.1040
    72.0958  72.5460  73.9535  74.0415  74.5127  74.5890  75.2301  75.3442
    75.3717  75.8467

     occupation numbers 
     1.0000   1.0000   1.0000   1.0000   1.0000   1.0000   1.0000   1.0000
     1.0000   1.0000   1.0000   1.0000   1.0000   1.0000   1.0000   1.0000
     1.0000   1.0000   1.0000   1.0000   1.0000   1.0000   1.0000   1.0000
     1.0000   1.0000   1.0353  -0.0000  -0.0000  -0.0000  -0.0000  -0.0000
    -0.0000  -0.0000  -0.0000  -0.0000  -0.0000  -0.0000  -0.0000  -0.0000
    -0.0000  -0.0000  -0.0000  -0.0000  -0.0000  -0.0000  -0.0000  -0.0000
    -0.0000  -0.0000  -0.0000  -0.0000  -0.0000  -0.0000  -0.0000  -0.0000
    -0.0000  -0.0000  -0.0000  -0.0000  -0.0000  -0.0000  -0.0000  -0.0000
    -0.0000  -0.0000  -0.0000  -0.0000  -0.0000  -0.0000  -0.0000  -0.0000
    -0.0000  -0.0000  -0.0000  -0.0000  -0.0000  -0.0000  -0.0000  -0.0000
    -0.0000  -0.0000  -0.0000  -0.0000  -0.0000  -0.0000  -0.0000  -0.0000
    -0.0000  -0.0000  -0.0000  -0.0000  -0.0000  -0.0000  -0.0000  -0.0000
    -0.0000  -0.0000

          k = 0.0000 0.4444 0.1203 (  1648 PWs)   bands (ev):

   -71.9572 -68.3716 -38.7150 -38.0513 -37.5503 -34.8606 -34.2840 -34.0212
    10.6793  10.9150  11.4544  11.8031  12.6491  12.8925  13.5185  13.6852
    13.9249  13.9540  14.2193  14.3476  14.5830  15.2884  15.5818  15.9500
    16.0227  16.2778  16.7719  17.8645  18.0816  18.8022  19.3723  20.1076
    24.0165  24.8330  26.5697  27.3085  31.0076  31.4900  32.8343  33.2172
    35.4103  35.4937  35.9874  36.3585  36.7316  36.8040  38.3329  38.9853
    42.6582  42.8983  43.5197  43.9803  44.8040  44.8157  46.3068  46.5644
    50.0158  50.2376  50.3744  50.7826  51.3494  51.9601  52.7075  52.9965
    53.8059  53.8200  54.6691  54.8798  56.4894  56.5148  58.9050  59.3848
    59.4453  59.7772  62.3942  62.6615  63.6629  63.7235  66.1066  66.5756
    67.1021  67.5570  68.1138  68.4902  68.6922  69.0762  69.9795  70.4132
    70.8329  71.1317  71.4107  71.8478  73.3316  73.7869  75.5788  75.6202
    76.8148  77.0354

     occupation numbers 
     1.0000   1.0000   1.0000   1.0000   1.0000   1.0000   1.0000   1.0000
     1.0000   1.0000   1.0000   1.0000   1.0000   1.0000   1.0000   1.0000
     1.0000   1.0000   1.0000   1.0000   1.0000   1.0000   1.0000   1.0000
     1.0000   1.0000   1.0120  -0.0000  -0.0000  -0.0000  -0.0000  -0.0000
    -0.0000  -0.0000  -0.0000  -0.0000  -0.0000  -0.0000  -0.0000  -0.0000
    -0.0000  -0.0000  -0.0000  -0.0000  -0.0000  -0.0000  -0.0000  -0.0000
    -0.0000  -0.0000  -0.0000  -0.0000  -0.0000  -0.0000  -0.0000  -0.0000
    -0.0000  -0.0000  -0.0000  -0.0000  -0.0000  -0.0000  -0.0000  -0.0000
    -0.0000  -0.0000  -0.0000  -0.0000  -0.0000  -0.0000  -0.0000  -0.0000
    -0.0000  -0.0000  -0.0000  -0.0000  -0.0000  -0.0000  -0.0000  -0.0000
    -0.0000  -0.0000  -0.0000  -0.0000  -0.0000  -0.0000  -0.0000  -0.0000
    -0.0000  -0.0000  -0.0000  -0.0000  -0.0000  -0.0000  -0.0000  -0.0000
    -0.0000  -0.0000

          k = 0.0000 0.4444 0.2406 (  1641 PWs)   bands (ev):

   -71.9572 -68.3716 -38.7146 -38.0511 -37.5501 -34.8601 -34.2838 -34.0210
    10.5381  10.8503  10.9274  11.2379  13.0467  13.3389  13.6568  13.7947
    13.9597  14.2653  14.6446  15.0001  15.2367  15.3477  15.8479  16.2236
    16.3988  16.4492  16.4883  18.2528  18.4020  18.4145  18.6076  19.4383
    22.2641  23.1942  24.6806  25.5212  33.6168  33.7794  34.3971  34.5190
    35.4737  35.6808  36.2180  36.7166  37.2432  37.4496  38.4741  38.7170
    41.2435  41.8781  42.8155  43.2307  44.4561  44.7983  46.6028  46.6992
    47.3564  47.4438  49.0667  49.3779  52.7020  53.2595  53.7154  54.3235
    54.4222  54.7799  56.3574  56.3756  56.9824  57.0870  58.0748  58.2101
    61.9617  61.9691  62.3652  62.5222  63.5814  63.7796  66.4002  66.5322
    66.9255  66.9577  67.0803  67.3373  68.8941  69.0638  69.6250  69.8050
    70.0742  70.3171  71.3828  71.7147  72.0257  72.4834  73.3659  73.3868
    76.1817  76.3619

     occupation numbers 
     1.0000   1.0000   1.0000   1.0000   1.0000   1.0000   1.0000   1.0000
     1.0000   1.0000   1.0000   1.0000   1.0000   1.0000   1.0000   1.0000
     1.0000   1.0000   1.0000   1.0000   1.0000   1.0000   1.0000   1.0000
     1.0000   1.0000   1.0000  -0.0000  -0.0000  -0.0000  -0.0000  -0.0000
    -0.0000  -0.0000  -0.0000  -0.0000  -0.0000  -0.0000  -0.0000  -0.0000
    -0.0000  -0.0000  -0.0000  -0.0000  -0.0000  -0.0000  -0.0000  -0.0000
    -0.0000  -0.0000  -0.0000  -0.0000  -0.0000  -0.0000  -0.0000  -0.0000
    -0.0000  -0.0000  -0.0000  -0.0000  -0.0000  -0.0000  -0.0000  -0.0000
    -0.0000  -0.0000  -0.0000  -0.0000  -0.0000  -0.0000  -0.0000  -0.0000
    -0.0000  -0.0000  -0.0000  -0.0000  -0.0000  -0.0000  -0.0000  -0.0000
    -0.0000  -0.0000  -0.0000  -0.0000  -0.0000  -0.0000  -0.0000  -0.0000
    -0.0000  -0.0000  -0.0000  -0.0000  -0.0000  -0.0000  -0.0000  -0.0000
    -0.0000  -0.0000

          k = 0.0000 0.4444-0.3610 (  1636 PWs)   bands (ev):

   -71.9572 -68.3715 -38.7145 -38.0509 -37.5499 -34.8599 -34.2836 -34.0209
    10.4941  10.6105  10.9012  11.0483  13.2188  13.3298  13.5911  13.8543
    14.2632  14.2692  15.0205  15.4873  15.7326  15.7980  16.0849  16.4769
    16.5514  16.6468  16.6510  16.7447  18.1612  18.4783  18.6273  18.6704
    22.0569  22.9339  23.8220  24.7716  34.0032  34.0509  34.1417  34.2147
    36.0283  36.7435  36.8503  37.2284  38.4155  38.5734  39.5583  39.7591
    39.9999  40.7620  41.5539  42.1534  44.2746  44.6032  45.2396  45.5287
    47.0304  47.4228  48.0816  48.1296  54.4374  54.9564  55.0259  55.1292
    55.4932  55.9119  56.6577  56.6667  57.6387  57.7597  58.3442  58.4181
    60.0081  60.3128  61.8907  62.3295  63.7173  63.9530  65.2580  65.6300
    65.9947  66.0641  66.3382  66.4395  69.9829  69.9959  70.5913  70.7064
    70.7615  71.1338  71.3782  71.4109  72.2557  72.4703  73.1428  73.6184
    76.7511  76.7864

     occupation numbers 
     1.0000   1.0000   1.0000   1.0000   1.0000   1.0000   1.0000   1.0000
     1.0000   1.0000   1.0000   1.0000   1.0000   1.0000   1.0000   1.0000
     1.0000   1.0000   1.0000   1.0000   1.0000   1.0000   1.0000   1.0000
     1.0000   1.0003   1.0003   1.0064  -0.0000  -0.0000  -0.0000  -0.0000
    -0.0000  -0.0000  -0.0000  -0.0000  -0.0000  -0.0000  -0.0000  -0.0000
    -0.0000  -0.0000  -0.0000  -0.0000  -0.0000  -0.0000  -0.0000  -0.0000
    -0.0000  -0.0000  -0.0000  -0.0000  -0.0000  -0.0000  -0.0000  -0.0000
    -0.0000  -0.0000  -0.0000  -0.0000  -0.0000  -0.0000  -0.0000  -0.0000
    -0.0000  -0.0000  -0.0000  -0.0000  -0.0000  -0.0000  -0.0000  -0.0000
    -0.0000  -0.0000  -0.0000  -0.0000  -0.0000  -0.0000  -0.0000  -0.0000
    -0.0000  -0.0000  -0.0000  -0.0000  -0.0000  -0.0000  -0.0000  -0.0000
    -0.0000  -0.0000  -0.0000  -0.0000  -0.0000  -0.0000  -0.0000  -0.0000
    -0.0000  -0.0000

          k = 0.1111 0.1111 0.0000 (  1647 PWs)   bands (ev):

   -71.9635 -68.3788 -38.6892 -38.0654 -37.5036 -34.8250 -34.3022 -33.9718
     8.1266   8.2577  11.0607  11.2609  11.6138  11.6453  13.3033  13.7650
    14.1049  14.4146  14.4835  14.7672  15.0493  15.2118  15.9371  16.0358
    16.4174  16.6410  17.1428  17.6276  18.3888  18.7217  20.9259  21.5486
    25.9911  26.7261  27.4432  27.6919  28.2685  28.5744  35.5239  35.6156
    36.4731  36.8559  37.2894  37.4304  38.2168  38.6218  39.5107  39.5997
    39.8679  39.8874  45.2950  45.4547  45.7531  45.8825  46.5758  46.6752
    46.7790  47.2050  47.8535  47.8591  50.2984  50.3936  53.5356  53.9492
    54.5303  54.9330  55.2133  55.6499  55.9102  56.1106  56.4944  56.7049
    59.0166  59.1147  59.7299  60.3331  60.6728  60.8181  64.9935  65.1748
    66.0645  66.0732  66.3239  66.3818  66.4830  66.9505  68.6682  68.9786
    69.6945  70.2947  73.0149  73.4153  73.6972  73.9292  75.1475  75.4613
    76.5362  76.9900

     occupation numbers 
     1.0000   1.0000   1.0000   1.0000   1.0000   1.0000   1.0000   1.0000
     1.0000   1.0000   1.0000   1.0000   1.0000   1.0000   1.0000   1.0000
     1.0000   1.0000   1.0000   1.0000   1.0000   1.0000   1.0000   1.0000
     1.0000   1.0002  -0.0035  -0.0000  -0.0000  -0.0000  -0.0000  -0.0000
    -0.0000  -0.0000  -0.0000  -0.0000  -0.0000  -0.0000  -0.0000  -0.0000
    -0.0000  -0.0000  -0.0000  -0.0000  -0.0000  -0.0000  -0.0000  -0.0000
    -0.0000  -0.0000  -0.0000  -0.0000  -0.0000  -0.0000  -0.0000  -0.0000
    -0.0000  -0.0000  -0.0000  -0.0000  -0.0000  -0.0000  -0.0000  -0.0000
    -0.0000  -0.0000  -0.0000  -0.0000  -0.0000  -0.0000  -0.0000  -0.0000
    -0.0000  -0.0000  -0.0000  -0.0000  -0.0000  -0.0000  -0.0000  -0.0000
    -0.0000  -0.0000  -0.0000  -0.0000  -0.0000  -0.0000  -0.0000  -0.0000
    -0.0000  -0.0000  -0.0000  -0.0000  -0.0000  -0.0000  -0.0000  -0.0000
    -0.0000  -0.0000

          k = 0.1111 0.1111 0.1203 (  1644 PWs)   bands (ev):

   -71.9634 -68.3787 -38.6894 -38.0654 -37.5038 -34.8254 -34.3022 -33.9722
     8.4407   8.5714  11.1978  11.3386  11.6998  11.7179  13.3479  13.7731
    14.0918  14.3409  14.4965  14.6493  14.8234  15.1839  15.8629  16.0155
    16.3618  16.4119  16.7932  17.5891  18.3731  18.4159  19.4491  20.3755
    27.4361  27.7812  28.2926  28.5471  29.0985  29.6061  34.4587  34.6685
    35.2751  35.5051  37.9089  37.9813  38.8313  39.0269  39.3579  39.4692
    40.9072  41.1622  42.7335  42.9809  46.4515  46.4845  46.7946  46.8772
    47.2046  47.4822  48.6529  48.8115  50.1021  50.1250  52.1940  52.8315
    54.1682  54.3837  54.5092  54.7369  55.7686  55.9797  56.7173  57.0187
    59.1721  59.4516  60.5405  60.6205  61.1650  61.7388  62.8193  63.1251
    65.0759  65.1726  66.5508  66.9725  68.3977  68.7537  70.0081  70.3266
    70.8276  71.3757  73.2190  73.4410  73.6431  73.9114  75.0274  75.4588
    77.7515  78.4113

     occupation numbers 
     1.0000   1.0000   1.0000   1.0000   1.0000   1.0000   1.0000   1.0000
     1.0000   1.0000   1.0000   1.0000   1.0000   1.0000   1.0000   1.0000
     1.0000   1.0000   1.0000   1.0000   1.0000   1.0000   1.0000   1.0000
     1.0000   1.0000   1.0181  -0.0000  -0.0000  -0.0000  -0.0000  -0.0000
    -0.0000  -0.0000  -0.0000  -0.0000  -0.0000  -0.0000  -0.0000  -0.0000
    -0.0000  -0.0000  -0.0000  -0.0000  -0.0000  -0.0000  -0.0000  -0.0000
    -0.0000  -0.0000  -0.0000  -0.0000  -0.0000  -0.0000  -0.0000  -0.0000
    -0.0000  -0.0000  -0.0000  -0.0000  -0.0000  -0.0000  -0.0000  -0.0000
    -0.0000  -0.0000  -0.0000  -0.0000  -0.0000  -0.0000  -0.0000  -0.0000
    -0.0000  -0.0000  -0.0000  -0.0000  -0.0000  -0.0000  -0.0000  -0.0000
    -0.0000  -0.0000  -0.0000  -0.0000  -0.0000  -0.0000  -0.0000  -0.0000
    -0.0000  -0.0000  -0.0000  -0.0000  -0.0000  -0.0000  -0.0000  -0.0000
    -0.0000  -0.0000

          k = 0.1111 0.1111 0.2406 (  1650 PWs)   bands (ev):

   -71.9634 -68.3787 -38.6901 -38.0655 -37.5045 -34.8263 -34.3024 -33.9731
     9.2667   9.3894  11.4351  11.5175  11.8189  11.8493  13.3343  13.6445
    13.9573  14.2076  14.2783  14.5252  14.6988  15.2278  15.4662  15.7330
    16.0601  16.1402  16.3271  17.4414  17.5747  17.8464  18.2333  19.0881
    29.1260  29.2984  29.9054  30.1862  31.8152  32.3366  33.0630  33.2463
    33.7113  33.8766  37.9233  38.3080  38.7356  39.2085  39.6134  39.6210
[...]
    11.3993  11.6553  11.8438  12.1882  12.5525  12.9062  13.2350  13.4673
    13.5212  13.6440  14.2467  14.3232  14.5776  14.9218  15.4883  15.5260
    15.7505  17.2420  17.4628  17.9245  17.9400  18.9352  19.7316  20.2800
    25.5836  25.7125  26.2380  26.6286  29.2086  29.8963  30.4949  30.8041
    34.4510  34.9741  36.2801  36.2835  37.7568  37.9380  38.5549  38.8982
    43.5765  43.6000  43.7572  43.8857  45.9195  46.0211  46.2297  46.4593
    50.1415  50.6695  50.7852  51.1544  51.6811  52.1556  52.8793  53.2680
    53.9066  53.9978  54.2637  54.7195  57.0011  57.0625  57.5568  57.6460
    59.7402  60.0903  61.1703  61.1775  65.0592  65.6394  65.9827  66.5165
    67.8775  67.9067  68.3666  68.7071  70.0298  70.1048  70.2923  70.4241
    72.1731  72.5825  73.3802  73.4429  73.9303  74.0215  74.7589  75.0973
    76.6287  76.6904

     occupation numbers 
     1.0000   1.0000   1.0000   1.0000   1.0000   1.0000   1.0000   1.0000
     1.0000   1.0000   1.0000   1.0000   1.0000   1.0000   1.0000   1.0000
     1.0000   1.0000   1.0000   1.0000   1.0000   1.0000   1.0000   1.0000
     1.0000  -0.0236  -0.0000  -0.0000  -0.0000  -0.0000  -0.0000  -0.0000
    -0.0000  -0.0000  -0.0000  -0.0000  -0.0000  -0.0000  -0.0000  -0.0000
    -0.0000  -0.0000  -0.0000  -0.0000  -0.0000  -0.0000  -0.0000  -0.0000
    -0.0000  -0.0000  -0.0000  -0.0000  -0.0000  -0.0000  -0.0000  -0.0000
    -0.0000  -0.0000  -0.0000  -0.0000  -0.0000  -0.0000  -0.0000  -0.0000
    -0.0000  -0.0000  -0.0000  -0.0000  -0.0000  -0.0000  -0.0000  -0.0000
    -0.0000  -0.0000  -0.0000  -0.0000  -0.0000  -0.0000  -0.0000  -0.0000
    -0.0000  -0.0000  -0.0000  -0.0000  -0.0000  -0.0000  -0.0000  -0.0000
    -0.0000  -0.0000  -0.0000  -0.0000  -0.0000  -0.0000  -0.0000  -0.0000
    -0.0000  -0.0000

          k = 0.4444 0.2222 0.0000 (  1631 PWs)   bands (ev):

   -71.9537 -68.3676 -38.6929 -38.1361 -37.5124 -34.8336 -34.3896 -33.9802
    11.2376  11.5401  11.6945  11.7993  12.2917  12.3015  12.6308  13.1642
    13.2007  13.7844  14.1392  15.1922  15.3457  15.4612  15.6891  16.2001
    17.1836  17.5210  17.6969  17.9114  18.2466  18.8747  19.8642  20.5733
    27.2571  27.4809  28.0288  28.1923  28.7954  29.2392  30.1224  30.5160
    30.9146  31.1910  32.0539  32.5005  38.7204  39.0594  39.5907  40.0688
    40.9773  41.0962  42.0165  42.0577  46.1408  46.3893  47.1487  47.3399
    50.9318  51.1282  52.6669  52.7368  54.3192  54.4597  54.5655  54.9646
    55.4635  55.5886  57.4172  57.7536  57.8816  58.2770  59.4683  59.6251
    59.8066  59.8280  62.0440  62.3498  63.9852  64.1703  64.9287  65.3202
    65.7100  66.1614  67.0185  67.5410  67.8332  68.3138  68.4483  68.8322
    70.5930  70.9451  71.4931  71.7026  73.1154  73.3286  74.4525  74.5914
    74.7895  74.8821

     occupation numbers 
     1.0000   1.0000   1.0000   1.0000   1.0000   1.0000   1.0000   1.0000
     1.0000   1.0000   1.0000   1.0000   1.0000   1.0000   1.0000   1.0000
     1.0000   1.0000   1.0000   1.0000   1.0000   1.0000   1.0000   1.0000
    -0.0347  -0.0000  -0.0000  -0.0000  -0.0000  -0.0000  -0.0000  -0.0000
    -0.0000  -0.0000  -0.0000  -0.0000  -0.0000  -0.0000  -0.0000  -0.0000
    -0.0000  -0.0000  -0.0000  -0.0000  -0.0000  -0.0000  -0.0000  -0.0000
    -0.0000  -0.0000  -0.0000  -0.0000  -0.0000  -0.0000  -0.0000  -0.0000
    -0.0000  -0.0000  -0.0000  -0.0000  -0.0000  -0.0000  -0.0000  -0.0000
    -0.0000  -0.0000  -0.0000  -0.0000  -0.0000  -0.0000  -0.0000  -0.0000
    -0.0000  -0.0000  -0.0000  -0.0000  -0.0000  -0.0000  -0.0000  -0.0000
    -0.0000  -0.0000  -0.0000  -0.0000  -0.0000  -0.0000  -0.0000  -0.0000
    -0.0000  -0.0000  -0.0000  -0.0000  -0.0000  -0.0000  -0.0000  -0.0000
    -0.0000  -0.0000

          k = 0.4444 0.2222-0.1203 (  1636 PWs)   bands (ev):

   -71.9537 -68.3676 -38.6931 -38.1361 -37.5126 -34.8339 -34.3896 -33.9805
    11.2099  11.5252  11.8660  11.9477  12.2369  12.4626  12.7386  13.1826
    13.2834  13.8331  14.0946  14.7567  14.9051  15.6833  15.8701  16.4373
    17.0412  17.3225  17.5748  18.3065  18.5196  18.9724  20.1371  20.8939
    24.6302  25.1728  27.0995  27.6370  29.2782  29.8606  30.4832  31.1475
    32.2312  32.6661  33.6293  33.7826  36.8351  37.1721  38.2632  38.3885
    42.1854  42.6792  45.0060  45.0666  46.2956  46.5731  47.5413  47.7269
    48.8616  49.1012  50.5780  50.6659  52.4649  52.8056  54.7380  55.0995
    56.6938  56.8468  57.2974  57.6281  58.6452  59.3153  59.8089  60.0187
    60.6181  60.9338  62.1363  62.3772  63.3851  63.6851  64.4872  64.7866
    65.1706  65.6949  66.7473  67.1116  68.2161  68.4357  70.0382  70.2206
    71.3229  71.7048  71.8161  72.0076  72.7611  73.4179  74.9588  75.1852
    75.5474  75.8897

     occupation numbers 
     1.0000   1.0000   1.0000   1.0000   1.0000   1.0000   1.0000   1.0000
     1.0000   1.0000   1.0000   1.0000   1.0000   1.0000   1.0000   1.0000
     1.0000   1.0000   1.0000   1.0000   1.0000   1.0000   1.0000   1.0000
     0.4059  -0.0043  -0.0000  -0.0000  -0.0000  -0.0000  -0.0000  -0.0000
    -0.0000  -0.0000  -0.0000  -0.0000  -0.0000  -0.0000  -0.0000  -0.0000
    -0.0000  -0.0000  -0.0000  -0.0000  -0.0000  -0.0000  -0.0000  -0.0000
    -0.0000  -0.0000  -0.0000  -0.0000  -0.0000  -0.0000  -0.0000  -0.0000
    -0.0000  -0.0000  -0.0000  -0.0000  -0.0000  -0.0000  -0.0000  -0.0000
    -0.0000  -0.0000  -0.0000  -0.0000  -0.0000  -0.0000  -0.0000  -0.0000
    -0.0000  -0.0000  -0.0000  -0.0000  -0.0000  -0.0000  -0.0000  -0.0000
    -0.0000  -0.0000  -0.0000  -0.0000  -0.0000  -0.0000  -0.0000  -0.0000
    -0.0000  -0.0000  -0.0000  -0.0000  -0.0000  -0.0000  -0.0000  -0.0000
    -0.0000  -0.0000

          k = 0.4444 0.2222-0.2406 (  1640 PWs)   bands (ev):

   -71.9537 -68.3676 -38.6934 -38.1360 -37.5129 -34.8343 -34.3894 -33.9809
    11.1621  11.4768  11.8883  12.1779  12.3661  12.7707  13.0715  13.3886
    13.4412  13.9543  14.1904  14.4515  14.5170  15.7566  15.8882  16.3679
    16.5400  17.2192  17.9775  18.4377  18.5611  19.7336  20.5265  21.3198
    22.5967  23.3418  25.0024  25.6923  29.8745  30.4801  31.5370  32.1261
    32.9406  33.2577  35.3111  35.4813  36.1707  36.3747  37.5396  37.7303
    44.7657  45.1871  45.2637  45.5906  46.3176  46.5891  47.1330  47.3239
    48.0890  48.3885  50.7149  50.7995  50.9893  51.3642  54.1280  54.2378
    55.4296  56.0059  56.1213  56.4564  58.2831  58.6781  59.7251  59.8169
    60.4659  60.6771  61.9882  62.4279  64.7171  65.0931  65.3982  65.7240
    66.3303  66.4707  67.5769  67.8556  69.1491  69.5250  70.7807  71.0598
    71.7813  72.1117  72.3376  72.7366  72.9751  73.2233  74.5802  74.7088
    75.3865  75.6899

     occupation numbers 
     1.0000   1.0000   1.0000   1.0000   1.0000   1.0000   1.0000   1.0000
     1.0000   1.0000   1.0000   1.0000   1.0000   1.0000   1.0000   1.0000
     1.0000   1.0000   1.0000   1.0000   1.0000   1.0000   1.0000   1.0000
     1.0000  -0.0310  -0.0000  -0.0000  -0.0000  -0.0000  -0.0000  -0.0000
    -0.0000  -0.0000  -0.0000  -0.0000  -0.0000  -0.0000  -0.0000  -0.0000
    -0.0000  -0.0000  -0.0000  -0.0000  -0.0000  -0.0000  -0.0000  -0.0000
    -0.0000  -0.0000  -0.0000  -0.0000  -0.0000  -0.0000  -0.0000  -0.0000
    -0.0000  -0.0000  -0.0000  -0.0000  -0.0000  -0.0000  -0.0000  -0.0000
    -0.0000  -0.0000  -0.0000  -0.0000  -0.0000  -0.0000  -0.0000  -0.0000
    -0.0000  -0.0000  -0.0000  -0.0000  -0.0000  -0.0000  -0.0000  -0.0000
    -0.0000  -0.0000  -0.0000  -0.0000  -0.0000  -0.0000  -0.0000  -0.0000
    -0.0000  -0.0000  -0.0000  -0.0000  -0.0000  -0.0000  -0.0000  -0.0000
    -0.0000  -0.0000

          k = 0.4444 0.2222 0.3610 (  1636 PWs)   bands (ev):

   -71.9537 -68.3676 -38.6935 -38.1357 -37.5130 -34.8345 -34.3892 -33.9811
    11.1439  11.4407  11.8558  12.1940  12.4767  12.8610  13.1156  13.5433
    13.7773  14.0339  14.3044  14.3574  14.8289  15.6555  15.7368  16.0065
    16.4072  17.2052  17.7673  18.4222  19.3235  19.6811  20.5699  20.8826
    22.6112  23.2511  23.8858  24.7228  30.3721  31.0889  31.9359  32.1637
    32.5327  32.9263  34.3972  34.4947  37.5089  37.8137  38.9070  38.9546
    43.8920  43.9405  44.1187  44.4751  46.4968  46.7318  46.8802  47.1638
    50.5149  50.9208  51.0228  51.2562  51.3098  51.9730  53.2002  53.2587
    54.9465  55.0050  55.8008  55.8372  56.6378  57.0612  57.5449  57.9478
    61.5944  61.8231  62.8219  63.1417  64.8268  65.0928  65.3491  65.4819
    67.6696  68.0555  68.7151  68.8690  69.9295  70.4372  70.6913  70.9880
    71.0652  71.2069  72.6101  72.6159  73.6125  73.6584  74.5352  75.0491
    75.4141  75.6449

     occupation numbers 
     1.0000   1.0000   1.0000   1.0000   1.0000   1.0000   1.0000   1.0000
     1.0000   1.0000   1.0000   1.0000   1.0000   1.0000   1.0000   1.0000
     1.0000   1.0000   1.0000   1.0000   1.0000   1.0000   1.0000   1.0000
     1.0000  -0.0343  -0.0000  -0.0000  -0.0000  -0.0000  -0.0000  -0.0000
    -0.0000  -0.0000  -0.0000  -0.0000  -0.0000  -0.0000  -0.0000  -0.0000
    -0.0000  -0.0000  -0.0000  -0.0000  -0.0000  -0.0000  -0.0000  -0.0000
    -0.0000  -0.0000  -0.0000  -0.0000  -0.0000  -0.0000  -0.0000  -0.0000
    -0.0000  -0.0000  -0.0000  -0.0000  -0.0000  -0.0000  -0.0000  -0.0000
    -0.0000  -0.0000  -0.0000  -0.0000  -0.0000  -0.0000  -0.0000  -0.0000
    -0.0000  -0.0000  -0.0000  -0.0000  -0.0000  -0.0000  -0.0000  -0.0000
    -0.0000  -0.0000  -0.0000  -0.0000  -0.0000  -0.0000  -0.0000  -0.0000
    -0.0000  -0.0000  -0.0000  -0.0000  -0.0000  -0.0000  -0.0000  -0.0000
    -0.0000  -0.0000

          k = 0.4444 0.3333 0.0000 (  1638 PWs)   bands (ev):

   -71.9509 -68.3644 -38.7024 -38.1336 -37.5298 -34.8470 -34.3862 -33.9983
    10.6709  11.0660  11.3623  11.4942  11.8413  12.2876  12.3470  12.7347
    14.7815  15.0945  15.1242  15.5950  15.8571  15.9951  16.4897  16.7809
    17.4506  17.9792  18.2283  18.3548  18.6155  18.7278  20.0462  20.6398
    26.0470  26.6990  28.1215  28.3229  28.6907  28.8877  29.1139  29.4743
    30.3928  30.4543  30.8326  31.0539  37.7932  37.9256  38.1628  38.2730
    39.3300  39.5859  39.8565  40.1406  48.5633  48.7202  50.8605  50.9506
    54.0288  54.0487  54.5589  54.7359  55.3055  55.6217  56.3285  56.4527
    57.1275  57.3258  57.3876  57.5355  57.9575  58.1326  61.2410  61.3291
    61.5258  62.2058  62.9778  63.1180  63.2458  63.5563  63.9193  64.1304
    65.1733  65.4537  65.7964  66.3062  66.4647  66.7330  67.5731  67.8259
    69.0183  69.2981  69.8472  70.1091  71.4781  71.8107  71.9280  72.3046
    73.4019  73.7534

     occupation numbers 
     1.0000   1.0000   1.0000   1.0000   1.0000   1.0000   1.0000   1.0000
     1.0000   1.0000   1.0000   1.0000   1.0000   1.0000   1.0000   1.0000
     1.0000   1.0000   1.0000   1.0000   1.0000   1.0000   1.0000   1.0144
    -0.0000  -0.0000  -0.0000  -0.0000  -0.0000  -0.0000  -0.0000  -0.0000
    -0.0000  -0.0000  -0.0000  -0.0000  -0.0000  -0.0000  -0.0000  -0.0000
    -0.0000  -0.0000  -0.0000  -0.0000  -0.0000  -0.0000  -0.0000  -0.0000
    -0.0000  -0.0000  -0.0000  -0.0000  -0.0000  -0.0000  -0.0000  -0.0000
    -0.0000  -0.0000  -0.0000  -0.0000  -0.0000  -0.0000  -0.0000  -0.0000
    -0.0000  -0.0000  -0.0000  -0.0000  -0.0000  -0.0000  -0.0000  -0.0000
    -0.0000  -0.0000  -0.0000  -0.0000  -0.0000  -0.0000  -0.0000  -0.0000
    -0.0000  -0.0000  -0.0000  -0.0000  -0.0000  -0.0000  -0.0000  -0.0000
    -0.0000  -0.0000  -0.0000  -0.0000  -0.0000  -0.0000  -0.0000  -0.0000
    -0.0000  -0.0000

          k = 0.4444 0.3333-0.1203 (  1630 PWs)   bands (ev):

   -71.9509 -68.3643 -38.7025 -38.1335 -37.5299 -34.8471 -34.3861 -33.9985
    10.8059  11.1693  11.5604  11.6026  12.0041  12.3629  12.5299  12.8949
    14.4188  14.6065  14.9934  15.2937  15.6242  15.9431  16.3457  16.6780
    17.4730  17.9278  18.1592  18.3857  18.6408  19.4845  20.6737  21.3900
    25.2665  25.6756  26.8412  27.2939  27.7450  28.1067  28.9989  29.6456
    30.6559  31.1110  32.3342  32.4295  37.0333  37.2353  37.4262  37.7679
    40.4196  40.8411  42.8430  43.0392  48.7077  48.8734  50.2959  50.4429
    51.0636  51.1698  51.7670  51.8439  55.5617  55.8302  56.3667  56.6765
    56.9806  57.3223  58.2831  58.6422  59.1634  59.4011  59.8428  59.9797
    61.5670  62.0585  63.3406  63.5052  63.7577  64.0410  64.4858  64.8966
    65.3904  65.6195  66.2836  66.6012  66.7840  66.8935  67.5928  68.0194
    69.6428  70.0738  70.5052  70.8733  71.3459  71.6493  72.5780  73.0265
    73.6753  74.1691

     occupation numbers 
     1.0000   1.0000   1.0000   1.0000   1.0000   1.0000   1.0000   1.0000
     1.0000   1.0000   1.0000   1.0000   1.0000   1.0000   1.0000   1.0000
     1.0000   1.0000   1.0000   1.0000   1.0000   1.0000   1.0000   1.0009
    -0.0000  -0.0000  -0.0000  -0.0000  -0.0000  -0.0000  -0.0000  -0.0000
    -0.0000  -0.0000  -0.0000  -0.0000  -0.0000  -0.0000  -0.0000  -0.0000
    -0.0000  -0.0000  -0.0000  -0.0000  -0.0000  -0.0000  -0.0000  -0.0000
    -0.0000  -0.0000  -0.0000  -0.0000  -0.0000  -0.0000  -0.0000  -0.0000
    -0.0000  -0.0000  -0.0000  -0.0000  -0.0000  -0.0000  -0.0000  -0.0000
    -0.0000  -0.0000  -0.0000  -0.0000  -0.0000  -0.0000  -0.0000  -0.0000
    -0.0000  -0.0000  -0.0000  -0.0000  -0.0000  -0.0000  -0.0000  -0.0000
    -0.0000  -0.0000  -0.0000  -0.0000  -0.0000  -0.0000  -0.0000  -0.0000
    -0.0000  -0.0000  -0.0000  -0.0000  -0.0000  -0.0000  -0.0000  -0.0000
    -0.0000  -0.0000

          k = 0.4444 0.3333-0.2406 (  1633 PWs)   bands (ev):

   -71.9509 -68.3643 -38.7030 -38.1337 -37.5303 -34.8477 -34.3863 -33.9991
    11.1434  11.4212  11.7870  11.9164  12.3022  12.6913  12.7964  13.5400
    13.6914  13.9318  14.7437  14.8633  15.3643  15.7744  15.9015  16.6043
    16.6707  17.7912  17.8769  18.4858  19.5789  20.7410  22.0002  22.7261
    23.2496  23.8155  25.5495  26.1876  27.2578  27.8847  28.8691  29.5366
    30.4940  30.8759  32.3605  32.6481  37.4891  37.7800  39.1945  39.3903
    43.4503  43.7458  45.0986  45.4927  47.2196  47.4381  48.4656  48.5685
    49.4741  49.5773  51.5801  51.6909  53.2287  53.9082  54.3791  54.7422
    56.8282  56.9333  57.1010  57.3140  58.8283  59.0348  59.7429  59.9200
    61.1301  61.6296  63.6055  63.7785  63.9885  64.2006  65.0725  65.2767
    66.6099  67.0546  67.5571  67.8194  68.5533  68.7819  69.0834  69.2309
    70.5662  71.1288  71.2062  71.5256  72.5127  72.7972  74.0113  74.6142
    75.4513  76.0150

     occupation numbers 
     1.0000   1.0000   1.0000   1.0000   1.0000   1.0000   1.0000   1.0000
     1.0000   1.0000   1.0000   1.0000   1.0000   1.0000   1.0000   1.0000
     1.0000   1.0000   1.0000   1.0000   1.0000   1.0000   1.0000   1.0001
     1.0007  -0.0000  -0.0000  -0.0000  -0.0000  -0.0000  -0.0000  -0.0000
    -0.0000  -0.0000  -0.0000  -0.0000  -0.0000  -0.0000  -0.0000  -0.0000
    -0.0000  -0.0000  -0.0000  -0.0000  -0.0000  -0.0000  -0.0000  -0.0000
    -0.0000  -0.0000  -0.0000  -0.0000  -0.0000  -0.0000  -0.0000  -0.0000
    -0.0000  -0.0000  -0.0000  -0.0000  -0.0000  -0.0000  -0.0000  -0.0000
    -0.0000  -0.0000  -0.0000  -0.0000  -0.0000  -0.0000  -0.0000  -0.0000
    -0.0000  -0.0000  -0.0000  -0.0000  -0.0000  -0.0000  -0.0000  -0.0000
    -0.0000  -0.0000  -0.0000  -0.0000  -0.0000  -0.0000  -0.0000  -0.0000
    -0.0000  -0.0000  -0.0000  -0.0000  -0.0000  -0.0000  -0.0000  -0.0000
    -0.0000  -0.0000

          k = 0.4444 0.3333 0.3610 (  1638 PWs)   bands (ev):

   -71.9509 -68.3643 -38.7034 -38.1338 -37.5306 -34.8481 -34.3864 -33.9995
    11.4219  11.6058  11.7818  11.9658  12.6958  12.8407  12.9056  13.1770
    13.6144  14.2898  14.5725  15.0871  15.2330  15.4314  15.7259  15.8493
    16.5953  17.6841  17.6989  18.4181  20.6336  21.3763  21.8203  22.5093
    23.5486  23.9855  24.3703  25.0449  27.5961  28.3662  28.9792  29.2561
    29.8316  30.4453  31.8129  32.1394  39.0427  39.3131  41.2318  41.2525
    42.4789  42.6806  45.0891  45.3664  47.2788  47.7874  48.8525  49.5509
    50.1646  50.1929  50.7380  51.0149  52.5002  52.5787  53.8494  53.9105
    54.4454  54.9360  56.4865  56.5176  58.4065  58.9120  59.8818  60.1831
    62.1431  62.5564  62.6457  62.9273  63.9329  64.3235  64.8202  64.8486
    66.8547  67.2476  67.8028  68.2353  68.2960  68.8019  71.3329  71.4238
    72.6585  73.0046  73.2711  73.5513  73.6521  74.1704  74.9104  75.1770
    75.3605  75.7451

     occupation numbers 
     1.0000   1.0000   1.0000   1.0000   1.0000   1.0000   1.0000   1.0000
     1.0000   1.0000   1.0000   1.0000   1.0000   1.0000   1.0000   1.0000
     1.0000   1.0000   1.0000   1.0000   1.0000   1.0000   1.0000   1.0000
     1.0000  -0.0000  -0.0000  -0.0000  -0.0000  -0.0000  -0.0000  -0.0000
    -0.0000  -0.0000  -0.0000  -0.0000  -0.0000  -0.0000  -0.0000  -0.0000
    -0.0000  -0.0000  -0.0000  -0.0000  -0.0000  -0.0000  -0.0000  -0.0000
    -0.0000  -0.0000  -0.0000  -0.0000  -0.0000  -0.0000  -0.0000  -0.0000
    -0.0000  -0.0000  -0.0000  -0.0000  -0.0000  -0.0000  -0.0000  -0.0000
    -0.0000  -0.0000  -0.0000  -0.0000  -0.0000  -0.0000  -0.0000  -0.0000
    -0.0000  -0.0000  -0.0000  -0.0000  -0.0000  -0.0000  -0.0000  -0.0000
    -0.0000  -0.0000  -0.0000  -0.0000  -0.0000  -0.0000  -0.0000  -0.0000
    -0.0000  -0.0000  -0.0000  -0.0000  -0.0000  -0.0000  -0.0000  -0.0000
    -0.0000  -0.0000

     the Fermi energy is    17.0260 ev
     (compare with:    16.9627 eV, computed in scf)

     Writing all to output data dir ./work/pwscf.save/
 
     init_run     :      0.30s CPU      0.37s WALL (       1 calls)
     electrons    :     77.87s CPU     80.49s WALL (       1 calls)

     Called by init_run:
     wfcinit      :      0.00s CPU      0.01s WALL (       1 calls)
     wfcinit:atom :      0.00s CPU      0.01s WALL (     100 calls)
     wfcinit:wfcr :      2.20s CPU      2.33s WALL (     100 calls)
     potinit      :      0.01s CPU      0.01s WALL (       1 calls)
     hinit0       :      0.13s CPU      0.15s WALL (       1 calls)

     Called by electrons:
     c_bands      :     77.85s CPU     80.47s WALL (       1 calls)
     v_of_rho     :      0.01s CPU      0.01s WALL (       1 calls)
     v_h          :      0.00s CPU      0.00s WALL (       1 calls)
     v_xc         :      0.01s CPU      0.01s WALL (       1 calls)
     newd         :      0.14s CPU      0.18s WALL (       1 calls)

     Called by c_bands:
     init_us_2    :      0.00s CPU      0.01s WALL (     100 calls)
     init_us_2:cp :      0.00s CPU      0.01s WALL (     100 calls)
     cegterg      :     75.46s CPU     77.68s WALL (     205 calls)

     Called by sum_band:

     Called by *egterg:
     cdiaghg      :     34.81s CPU     34.86s WALL (    3467 calls)
     cegterg:over :      3.55s CPU      3.71s WALL (    3367 calls)
     cegterg:upda :      0.77s CPU      0.77s WALL (    3367 calls)
     cegterg:last :      2.40s CPU      2.41s WALL (    1739 calls)
     h_psi        :     31.38s CPU     33.45s WALL (    3672 calls)
     s_psi        :      2.19s CPU      2.20s WALL (    3672 calls)
     g_psi        :      0.07s CPU      0.07s WALL (    3367 calls)

     Called by h_psi:
     h_psi:calbec :      1.07s CPU      1.16s WALL (    3672 calls)
     vloc_psi     :     28.20s CPU     30.11s WALL (    3672 calls)
     add_vuspsi   :      1.99s CPU      2.06s WALL (    3672 calls)

     General routines
     calbec       :      1.06s CPU      1.15s WALL (    3672 calls)
     fft          :      0.01s CPU      0.02s WALL (      31 calls)
     ffts         :      0.00s CPU      0.00s WALL (       4 calls)
     fftw         :     24.76s CPU     26.45s WALL (  716392 calls)
     interpolate  :      0.00s CPU      0.00s WALL (       4 calls)
 
     Parallel routines
 
     PWSCF        :   1m20.71s CPU   1m28.71s WALL

 
   This run was terminated on:  15:26:21   2Aug2023            

=------------------------------------------------------------------------------=
   JOB DONE.
=------------------------------------------------------------------------------=
