 
             +---------------------------------------------------+
             |                                                   |
             |                   WANNIER90                       |
             |                                                   |
             +---------------------------------------------------+
             |                                                   |
             |        Welcome to the Maximally-Localized         |
             |        Generalized Wannier Functions code         |
             |            http://www.wannier.org                 |
             |                                                   |
             |                                                   |
             |  Wannier90 Developer Group:                       |
             |    Giovanni Pizzi    (EPFL)                       |
             |    Valerio Vitale    (Cambridge)                  |
             |    David Vanderbilt  (Rutgers University)         |
             |    Nicola Marzari    (EPFL)                       |
             |    Ivo Souza         (Universidad del Pais Vasco) |
             |    Arash A. Mostofi  (Imperial College London)    |
             |    Jonathan R. Yates (University of Oxford)       |
             |                                                   |
             |  For the full list of Wannier90 3.x authors,      |
             |  please check the code documentation and the      |
             |  README on the GitHub page of the code            |
             |                                                   |
             |                                                   |
             |  Please cite                                      |
             |                                                   |
             |  [ref] "Wannier90 as a community code:            |
             |        new features and applications",            |
             |        G. Pizzi et al., J. Phys. Cond. Matt. 32,  |
             |        165902 (2020).                             |
             |        http://doi.org/10.1088/1361-648X/ab51ff    |
             |                                                   |
             |  in any publications arising from the use of      |
             |  this code. For the method please cite            |
             |                                                   |
             |  [ref] "Maximally Localized Generalised Wannier   |
             |         Functions for Composite Energy Bands"     |
             |         N. Marzari and D. Vanderbilt              |
             |         Phys. Rev. B 56 12847 (1997)              |
             |                                                   |
             |  [ref] "Maximally Localized Wannier Functions     |
             |         for Entangled Energy Bands"               |
             |         I. Souza, N. Marzari and D. Vanderbilt    |
             |         Phys. Rev. B 65 035109 (2001)             |
             |                                                   |
             |                                                   |
             | Copyright (c) 1996-2020                           |
             |        The Wannier90 Developer Group and          |
             |        individual contributors                    |
             |                                                   |
             |      Release: 3.1.0        5th March    2020      |
             |                                                   |
             | This program is free software; you can            |
             | redistribute it and/or modify it under the terms  |
             | of the GNU General Public License as published by |
             | the Free Software Foundation; either version 2 of |
             | the License, or (at your option) any later version|
             |                                                   |
             | This program is distributed in the hope that it   |
             | will be useful, but WITHOUT ANY WARRANTY; without |
             | even the implied warranty of MERCHANTABILITY or   |
             | FITNESS FOR A PARTICULAR PURPOSE. See the GNU     |
             | General Public License for more details.          |
             |                                                   |
             | You should have received a copy of the GNU General|
             | Public License along with this program; if not,   |
             | write to the Free Software Foundation, Inc.,      |
             | 675 Mass Ave, Cambridge, MA 02139, USA.           |
             |                                                   |
             +---------------------------------------------------+
             |    Execution started on  2Aug2023 at 15:32:42     |
             +---------------------------------------------------+
 
 ******************************************************************************
 * -> Using CODATA 2006 constant values                                       *
 *    (http://physics.nist.gov/cuu/Constants/index.html)                      *
 * -> Using Bohr value from CODATA                                            *
 ******************************************************************************
 

 Running in parallel on  22 CPUs

 
                                    ------
                                    SYSTEM
                                    ------
 
                              Lattice Vectors (Ang)
                    a_1     2.728143   0.000000   0.000000
                    a_2     0.000000   2.728143   0.000000
                    a_3     0.000000   0.000000   3.778984
 
                   Unit Cell Volume:      28.12609  (Ang^3)
 
                        Reciprocal-Space Vectors (Ang^-1)
                    b_1     2.303100   0.000000   0.000000
                    b_2     0.000000   2.303100   0.000000
                    b_3     0.000000   0.000000   1.662665
  
 *----------------------------------------------------------------------------*
 |   Site       Fractional Coordinate          Cartesian Coordinate (Ang)     |
 +----------------------------------------------------------------------------+
 | Fe   1   0.00000   0.00000   0.00000   |    0.00000   0.00000   0.00000    |
 | Pt   1   0.50000   0.50000   0.50000   |    1.36407   1.36407   1.88949    |
 *----------------------------------------------------------------------------*
                                ------------
                                K-POINT GRID
                                ------------
  
             Grid size =  9 x  9 x  6      Total points =  486
  
  
 *---------------------------------- MAIN ------------------------------------*
 |  Number of Wannier Functions               :                36             |
 |  Number of Objective Wannier Functions     :                36             |
 |  Number of input Bloch states              :                90             |
 |  Output verbosity (1=low, 5=high)          :                 1             |
 |  Timing Level (1=low, 5=high)              :                 1             |
 |  Optimisation (0=memory, 3=speed)          :                 3             |
 |  Length Unit                               :               Ang             |
 |  Post-processing setup (write *.nnkp)      :                 F             |
 |  Using Gamma-only branch of algorithms     :                 F             |
 *----------------------------------------------------------------------------*
 *------------------------------- WANNIERISE ---------------------------------*
 |  Total number of iterations                :                 0             |
 |  Number of CG steps before reset           :                 5             |
 |  Trial step length for line search         :             2.000             |
 |  Convergence tolerence                     :         0.100E-09             |
 |  Convergence window                        :                -1             |
 |  Iterations between writing output         :                 1             |
 |  Iterations between backing up to disk     :               100             |
 |  Write r^2_nm to file                      :                 F             |
 |  Write xyz WF centres to file              :                 F             |
 |  Write on-site energies <0n|H|0n> to file  :                 F             |
 |  Use guiding centre to control phases      :                 F             |
 |  Use phases for initial projections        :                 F             |
 *----------------------------------------------------------------------------*
 *------------------------------- DISENTANGLE --------------------------------*
 |  Using band disentanglement                :                 T             |
 |  Total number of iterations                :               200             |
 |  Mixing ratio                              :             0.500             |
 |  Convergence tolerence                     :         1.000E-10             |
 |  Convergence window                        :                 3             |
 *----------------------------------------------------------------------------*
 *-------------------------------- PLOTTING ----------------------------------*
 |  Plotting interpolated bandstructure       :                 T             |
 |   Number of K-path sections                :                 9             |
 |   Divisions along first K-path section     :               100             |
 |   Output format                            :           gnuplot             |
 |   Output mode                              :               s-k             |
 *----------------------------------------------------------------------------*
 |   K-space path sections:                                                   |
 |    From: G       0.000  0.000  0.000     To: X       0.000  0.500  0.000   |
 |    From: X       0.000  0.500  0.000     To: M       0.500  0.500  0.000   |
 |    From: M       0.500  0.500  0.000     To: G       0.000  0.000  0.000   |
 |    From: G       0.000  0.000  0.000     To: Z       0.000  0.000  0.500   |
 |    From: Z       0.000  0.000  0.500     To: R       0.000  0.500  0.500   |
 |    From: R       0.000  0.500  0.500     To: A       0.500  0.500  0.500   |
 |    From: A       0.500  0.500  0.500     To: Z       0.000  0.000  0.500   |
 |    From: X       0.000  0.500  0.000     To: R       0.000  0.500  0.500   |
 |    From: M       0.500  0.500  0.000     To: A       0.500  0.500  0.500   |
 *----------------------------------------------------------------------------*
 |  Plotting Hamiltonian in WF basis          :                 T             |
 *----------------------------------------------------------------------------*
 Time to read parameters        0.050 (sec)

 *---------------------------------- K-MESH ----------------------------------*
 +----------------------------------------------------------------------------+
 |                    Distance to Nearest-Neighbour Shells                    |
 |                    ------------------------------------                    |
 |          Shell             Distance (Ang^-1)          Multiplicity         |
 |          -----             -----------------          ------------         |
 |             1                   0.255900                      4            |
 |             2                   0.277111                      2            |
 |             3                   0.361897                      4            |
 |             4                   0.377194                      8            |
 |             5                   0.455807                      8            |
 |             6                   0.511800                      4            |
 |             7                   0.554222                      2            |
 |             8                   0.572210                      8            |
 |             9                   0.582005                      8            |
 |            10                   0.610448                      8            |
 |            11                   0.635779                     16            |
 |            12                   0.661915                      8            |
 |            13                   0.723794                      4            |
 |            14                   0.754388                      8            |
 |            15                   0.767700                      4            |
 |            16                   0.775028                      8            |
 |            17                   0.796609                     16            |
 |            18                   0.809227                      8            |
 |            19                   0.816182                      8            |
 |            20                   0.831333                      2            |
 |            21                   0.855359                     16            |
 |            22                   0.869827                      8            |
 |            23                   0.906688                      8            |
 |            24                   0.911614                      8            |
 |            25                   0.922660                      8            |
 |            26                   0.946850                      8            |
 |            27                   0.963376                     16            |
 |            28                   0.976244                      8            |
 |            29                   0.980821                     16            |
 |            30                   1.009226                     16            |
 |            31                   1.023600                      4            |
 |            32                   1.055103                      8            |
 |            33                   1.060447                      8            |
 |            34                   1.076320                     16            |
 |            35                   1.085692                      4            |
 |            36                   1.090886                     16            |
 +----------------------------------------------------------------------------+
 | The b-vectors are chosen automatically                                     |
 | The following shells are used:   1,  2                                     |
 +----------------------------------------------------------------------------+
 |                        Shell   # Nearest-Neighbours                        |
 |                        -----   --------------------                        |
 |                          1               4                                 |
 |                          2               2                                 |
 +----------------------------------------------------------------------------+
 | Completeness relation is fully satisfied [Eq. (B1), PRB 56, 12847 (1997)]  |
 +----------------------------------------------------------------------------+
 |                  b_k Vectors (Ang^-1) and Weights (Ang^2)                  |
 |                  ----------------------------------------                  |
 |            No.         b_k(x)      b_k(y)      b_k(z)        w_b           |
 |            ---        --------------------------------     --------        |
 |             1         0.000000    0.255900    0.000000     7.635361        |
 |             2         0.000000   -0.255900    0.000000     7.635361        |
 |             3         0.255900    0.000000    0.000000     7.635361        |
 |             4        -0.255900    0.000000    0.000000     7.635361        |
 |             5         0.000000    0.000000    0.277111     6.511228        |
 |             6         0.000000    0.000000   -0.277111     6.511228        |
 +----------------------------------------------------------------------------+
 |                           b_k Directions (Ang^-1)                          |
 |                           -----------------------                          |
 |            No.           x           y           z                         |
 |            ---        --------------------------------                     |
 |             1         0.000000    0.255900    0.000000                     |
 |             2         0.255900    0.000000    0.000000                     |
 |             3         0.000000    0.000000    0.277111                     |
 +----------------------------------------------------------------------------+
  
 Time to get kmesh              0.214 (sec)
 *============================================================================*
 |                              MEMORY ESTIMATE                               |
 |         Maximum RAM allocated during each phase of the calculation         |
 *============================================================================*
 |                        Disentanglement          539.76 Mb                  |
 |                            Wannierise:          182.44 Mb                  |
 |                          plot_wannier:          182.44 Mb                  |
 *----------------------------------------------------------------------------*
  
 Starting a new Wannier90 calculation ...


 Reading overlaps from pwscf.mmn    : Mmn created by mmn.py

 Reading projections from pwscf.amn : Amn created by amn.py

 Time to read overlaps         14.915 (sec)

 *------------------------------- DISENTANGLE --------------------------------*
 +----------------------------------------------------------------------------+
 |                              Energy  Windows                               |
 |                              ---------------                               |
 |                   Outer:    7.50058  to   80.47904  (eV)                   |
 |                   Inner: **********  to   20.96270  (eV)                   |
 +----------------------------------------------------------------------------+
   Number of target bands to extract:   36

                   Unitarised projection of Wannier functions                  
                   ------------------------------------------                  
   A_mn = <psi_m|g_n> --> S = A.A^+ --> U = S^-1/2.A
   In dis_project... done
   Using an inner window (linner = T)
   In dis_proj_froz... done

                   Extraction of optimally-connected subspace                  
                   ------------------------------------------                  
 +---------------------------------------------------------------------+<-- DIS
 |  Iter     Omega_I(i-1)      Omega_I(i)      Delta (frac.)    Time   |<-- DIS
 +---------------------------------------------------------------------+<-- DIS
       1      27.33001546      25.42954784       7.473E-02      0.00    <-- DIS
       2      26.19724820      24.91108405       5.163E-02      0.09    <-- DIS
       3      25.48879449      24.55611664       3.798E-02      0.18    <-- DIS
       4      24.97210070      24.28652267       2.823E-02      0.27    <-- DIS
       5      24.58936993      24.07360809       2.142E-02      0.36    <-- DIS
       6      24.29906413      23.90087731       1.666E-02      0.45    <-- DIS
       7      24.07313283      23.75780630       1.327E-02      0.54    <-- DIS
       8      23.89289676      23.63731996       1.081E-02      0.63    <-- DIS
       9      23.74586863      23.53447132       8.982E-03      0.72    <-- DIS
      10      23.62358741      23.44568683       7.588E-03      0.81    <-- DIS
      11      23.52020876      23.36831295       6.500E-03      0.90    <-- DIS
      12      23.43160383      23.30033247       5.634E-03      1.01    <-- DIS
      13      23.35478522      23.24018092       4.931E-03      1.10    <-- DIS
      14      23.28753952      23.18662396       4.352E-03      1.19    <-- DIS
      15      23.22818951      23.13867321       3.869E-03      1.28    <-- DIS
      16      23.17543784      23.09552706       3.460E-03      1.37    <-- DIS
      17      23.12826245      23.05652807       3.111E-03      1.46    <-- DIS
      18      23.08584512      23.02113172       2.811E-03      1.55    <-- DIS
      19      23.04752157      22.98888313       2.551E-03      1.64    <-- DIS
      20      23.01274595      22.95939930       2.324E-03      1.73    <-- DIS
      21      22.98106501      22.93235556       2.124E-03      1.82    <-- DIS
      22      22.95209893      22.90747493       1.948E-03      1.91    <-- DIS
      23      22.92552685      22.88451978       1.792E-03      2.00    <-- DIS
      24      22.90107581      22.86328515       1.653E-03      2.11    <-- DIS
      25      22.87851211      22.84359344       1.529E-03      2.20    <-- DIS
      26      22.85763451      22.82529004       1.417E-03      2.29    <-- DIS
      27      22.83826885      22.80823984       1.317E-03      2.38    <-- DIS
      28      22.82026366      22.79232426       1.226E-03      2.47    <-- DIS
      29      22.80348664      22.77743890       1.144E-03      2.56    <-- DIS
      30      22.78782177      22.76349149       1.069E-03      2.65    <-- DIS
      31      22.77316692      22.75040025       1.001E-03      2.74    <-- DIS
      32      22.75943186      22.73809244       9.385E-04      2.83    <-- DIS
      33      22.74653661      22.72650320       8.815E-04      2.92    <-- DIS
      34      22.73441007      22.71557454       8.292E-04      3.01    <-- DIS
      35      22.72298882      22.70525444       7.811E-04      3.11    <-- DIS
      36      22.71221614      22.69549616       7.367E-04      3.20    <-- DIS
      37      22.70204116      22.68625756       6.957E-04      3.29    <-- DIS
      38      22.69241817      22.67750059       6.578E-04      3.38    <-- DIS
      39      22.68330594      22.66919079       6.227E-04      3.47    <-- DIS
      40      22.67466723      22.66129691       5.900E-04      3.56    <-- DIS
      41      22.66646832      22.65379052       5.596E-04      3.65    <-- DIS
      42      22.65867861      22.64664574       5.313E-04      3.74    <-- DIS
      43      22.65127026      22.63983892       5.049E-04      3.83    <-- DIS
      44      22.64421791      22.63334846       4.802E-04      3.92    <-- DIS
      45      22.63749839      22.62715453       4.571E-04      4.01    <-- DIS
      46      22.63109051      22.62123895       4.355E-04      4.11    <-- DIS
      47      22.62497483      22.61558500       4.152E-04      4.21    <-- DIS
      48      22.61913352      22.61017727       3.961E-04      4.30    <-- DIS
      49      22.61355017      22.60500154       3.782E-04      4.39    <-- DIS
      50      22.60820964      22.60004468       3.613E-04      4.48    <-- DIS
      51      22.60309797      22.59529453       3.454E-04      4.57    <-- DIS
      52      22.59820226      22.59073981       3.303E-04      4.66    <-- DIS
      53      22.59351055      22.58637006       3.161E-04      4.75    <-- DIS
      54      22.58901176      22.58217554       3.027E-04      4.84    <-- DIS
      55      22.58469559      22.57814719       2.900E-04      4.93    <-- DIS
      56      22.58055246      22.57427656       2.780E-04      5.02    <-- DIS
      57      22.57657345      22.57055576       2.666E-04      5.11    <-- DIS
      58      22.57275025      22.56697742       2.558E-04      5.22    <-- DIS
      59      22.56907508      22.56353465       2.455E-04      5.31    <-- DIS
      60      22.56554067      22.56022096       2.358E-04      5.40    <-- DIS
      61      22.56214023      22.55703029       2.265E-04      5.50    <-- DIS
      62      22.55886738      22.55395695       2.177E-04      5.60    <-- DIS
      63      22.55571612      22.55099557       2.093E-04      5.69    <-- DIS
      64      22.55268085      22.54814111       2.013E-04      5.78    <-- DIS
      65      22.54975626      22.54538882       1.937E-04      5.87    <-- DIS
      66      22.54693738      22.54273421       1.865E-04      5.96    <-- DIS
      67      22.54421952      22.54017304       1.795E-04      6.06    <-- DIS
      68      22.54159825      22.53770133       1.729E-04      6.15    <-- DIS
      69      22.53906937      22.53531528       1.666E-04      6.26    <-- DIS
      70      22.53662895      22.53301131       1.605E-04      6.35    <-- DIS
      71      22.53427324      22.53078603       1.548E-04      6.44    <-- DIS
      72      22.53199870      22.52863622       1.493E-04      6.54    <-- DIS
      73      22.52980197      22.52655883       1.440E-04      6.63    <-- DIS
      74      22.52767987      22.52455094       1.389E-04      6.72    <-- DIS
      75      22.52562938      22.52260981       1.341E-04      6.81    <-- DIS
      76      22.52364763      22.52073281       1.294E-04      6.91    <-- DIS
      77      22.52173189      22.51891745       1.250E-04      7.00    <-- DIS
      78      22.51987956      22.51716135       1.207E-04      7.09    <-- DIS
      79      22.51808818      22.51546224       1.166E-04      7.18    <-- DIS
      80      22.51635538      22.51381796       1.127E-04      7.29    <-- DIS
      81      22.51467894      22.51222646       1.089E-04      7.38    <-- DIS
      82      22.51305671      22.51068576       1.053E-04      7.47    <-- DIS
      83      22.51148664      22.50919398       1.019E-04      7.57    <-- DIS
      84      22.50996680      22.50774933       9.852E-05      7.66    <-- DIS
      85      22.50849532      22.50635010       9.532E-05      7.75    <-- DIS
      86      22.50707042      22.50499463       9.224E-05      7.84    <-- DIS
      87      22.50569040      22.50368135       8.928E-05      7.94    <-- DIS
      88      22.50435363      22.50240877       8.643E-05      8.03    <-- DIS
      89      22.50305856      22.50117544       8.369E-05      8.12    <-- DIS
      90      22.50180370      22.49997997       8.105E-05      8.21    <-- DIS
      91      22.50058762      22.49882104       7.852E-05      8.32    <-- DIS
      92      22.49940894      22.49769738       7.608E-05      8.42    <-- DIS
      93      22.49826637      22.49660777       7.373E-05      8.51    <-- DIS
      94      22.49715863      22.49555104       7.146E-05      8.60    <-- DIS
      95      22.49608453      22.49452607       6.928E-05      8.69    <-- DIS
      96      22.49504290      22.49353178       6.718E-05      8.79    <-- DIS
      97      22.49403263      22.49256713       6.515E-05      8.88    <-- DIS
      98      22.49305265      22.49163113       6.320E-05      8.97    <-- DIS
      99      22.49210194      22.49072281       6.132E-05      9.06    <-- DIS
     100      22.49117951      22.48984126       5.950E-05      9.16    <-- DIS
     101      22.49028441      22.48898558       5.775E-05      9.25    <-- DIS
     102      22.48941573      22.48815494       5.606E-05      9.35    <-- DIS
     103      22.48857259      22.48734851       5.443E-05      9.45    <-- DIS
     104      22.48775416      22.48656549       5.286E-05      9.54    <-- DIS
     105      22.48695961      22.48580513       5.134E-05      9.63    <-- DIS
     106      22.48618817      22.48506669       4.988E-05      9.72    <-- DIS
     107      22.48543908      22.48434948       4.846E-05      9.82    <-- DIS
     108      22.48471162      22.48365280       4.709E-05      9.91    <-- DIS
     109      22.48400509      22.48297601       4.577E-05     10.00    <-- DIS
     110      22.48331882      22.48231847       4.450E-05     10.09    <-- DIS
     111      22.48265216      22.48167957       4.326E-05     10.19    <-- DIS
     112      22.48200449      22.48105873       4.207E-05     10.28    <-- DIS
     113      22.48137520      22.48045538       4.092E-05     10.37    <-- DIS
     114      22.48076371      22.47986897       3.980E-05     10.47    <-- DIS
     115      22.48016946      22.47929898       3.872E-05     10.56    <-- DIS
     116      22.47959192      22.47874489       3.768E-05     10.65    <-- DIS
     117      22.47903056      22.47820621       3.667E-05     10.74    <-- DIS
     118      22.47848487      22.47768248       3.570E-05     10.84    <-- DIS
     119      22.47795437      22.47717323       3.475E-05     10.92    <-- DIS
     120      22.47743860      22.47667802       3.384E-05     11.01    <-- DIS
     121      22.47693710      22.47619642       3.295E-05     11.10    <-- DIS
     122      22.47644942      22.47572802       3.210E-05     11.19    <-- DIS
     123      22.47597516      22.47527241       3.127E-05     11.28    <-- DIS
     124      22.47551390      22.47482923       3.046E-05     11.37    <-- DIS
     125      22.47506525      22.47439808       2.969E-05     11.48    <-- DIS
     126      22.47462883      22.47397861       2.893E-05     11.57    <-- DIS
     127      22.47420426      22.47357048       2.820E-05     11.66    <-- DIS
     128      22.47379120      22.47317334       2.749E-05     11.75    <-- DIS
     129      22.47338930      22.47278687       2.681E-05     11.84    <-- DIS
     130      22.47299822      22.47241076       2.614E-05     11.93    <-- DIS
     131      22.47261765      22.47204470       2.550E-05     12.02    <-- DIS
     132      22.47224727      22.47168839       2.487E-05     12.11    <-- DIS
     133      22.47188679      22.47134155       2.426E-05     12.20    <-- DIS
     134      22.47153591      22.47100390       2.368E-05     12.29    <-- DIS
     135      22.47119435      22.47067518       2.310E-05     12.38    <-- DIS
     136      22.47086184      22.47035513       2.255E-05     12.48    <-- DIS
     137      22.47053811      22.47004349       2.201E-05     12.57    <-- DIS
     138      22.47022291      22.46974003       2.149E-05     12.67    <-- DIS
     139      22.46991600      22.46944450       2.098E-05     12.76    <-- DIS
     140      22.46961712      22.46915669       2.049E-05     12.85    <-- DIS
     141      22.46932606      22.46887637       2.001E-05     12.94    <-- DIS
     142      22.46904259      22.46860333       1.955E-05     13.03    <-- DIS
     143      22.46876649      22.46833736       1.910E-05     13.12    <-- DIS
     144      22.46849755      22.46807826       1.866E-05     13.21    <-- DIS
     145      22.46823556      22.46782584       1.824E-05     13.29    <-- DIS
     146      22.46798033      22.46757990       1.782E-05     13.38    <-- DIS
     147      22.46773168      22.46734028       1.742E-05     13.47    <-- DIS
     148      22.46748940      22.46710678       1.703E-05     13.58    <-- DIS
     149      22.46725333      22.46687924       1.665E-05     13.68    <-- DIS
     150      22.46702328      22.46665750       1.628E-05     13.77    <-- DIS
     151      22.46679910      22.46644139       1.592E-05     13.87    <-- DIS
     152      22.46658062      22.46623075       1.557E-05     13.96    <-- DIS
     153      22.46636767      22.46602544       1.523E-05     14.05    <-- DIS
     154      22.46616011      22.46582530       1.490E-05     14.14    <-- DIS
     155      22.46595778      22.46563021       1.458E-05     14.23    <-- DIS
     156      22.46576055      22.46544001       1.427E-05     14.32    <-- DIS
     157      22.46556826      22.46525457       1.396E-05     14.41    <-- DIS
     158      22.46538080      22.46507376       1.367E-05     14.50    <-- DIS
     159      22.46519801      22.46489747       1.338E-05     14.60    <-- DIS
     160      22.46501978      22.46472556       1.310E-05     14.70    <-- DIS
     161      22.46484599      22.46455791       1.282E-05     14.79    <-- DIS
     162      22.46467650      22.46439442       1.256E-05     14.88    <-- DIS
     163      22.46451121      22.46423497       1.230E-05     14.97    <-- DIS
     164      22.46435000      22.46407944       1.204E-05     15.06    <-- DIS
     165      22.46419277      22.46392774       1.180E-05     15.15    <-- DIS
     166      22.46403939      22.46377977       1.156E-05     15.25    <-- DIS
     167      22.46388978      22.46363542       1.132E-05     15.34    <-- DIS
     168      22.46374383      22.46349460       1.110E-05     15.43    <-- DIS
     169      22.46360144      22.46335721       1.087E-05     15.52    <-- DIS
     170      22.46346252      22.46322316       1.066E-05     15.62    <-- DIS
     171      22.46332697      22.46309237       1.044E-05     15.72    <-- DIS
     172      22.46319471      22.46296474       1.024E-05     15.81    <-- DIS
     173      22.46306565      22.46284020       1.004E-05     15.90    <-- DIS
     174      22.46293970      22.46271867       9.840E-06     15.99    <-- DIS
     175      22.46281679      22.46260006       9.649E-06     16.09    <-- DIS
     176      22.46269683      22.46248430       9.462E-06     16.18    <-- DIS
     177      22.46257975      22.46237131       9.279E-06     16.27    <-- DIS
     178      22.46246547      22.46226103       9.101E-06     16.36    <-- DIS
     179      22.46235391      22.46215337       8.928E-06     16.45    <-- DIS
     180      22.46224501      22.46204829       8.758E-06     16.55    <-- DIS
     181      22.46213870      22.46194570       8.593E-06     16.64    <-- DIS
     182      22.46203492      22.46184554       8.431E-06     16.75    <-- DIS
     183      22.46193358      22.46174776       8.273E-06     16.84    <-- DIS
     184      22.46183464      22.46165228       8.119E-06     16.94    <-- DIS
     185      22.46173803      22.46155906       7.968E-06     17.03    <-- DIS
     186      22.46164370      22.46146803       7.821E-06     17.12    <-- DIS
     187      22.46155157      22.46137914       7.677E-06     17.21    <-- DIS
     188      22.46146161      22.46129233       7.536E-06     17.31    <-- DIS
     189      22.46137374      22.46120755       7.399E-06     17.40    <-- DIS
     190      22.46128793      22.46112475       7.265E-06     17.49    <-- DIS
     191      22.46120411      22.46104388       7.134E-06     17.58    <-- DIS
     192      22.46112223      22.46096489       7.005E-06     17.68    <-- DIS
     193      22.46104226      22.46088773       6.880E-06     17.79    <-- DIS
     194      22.46096413      22.46081235       6.757E-06     17.88    <-- DIS
     195      22.46088780      22.46073872       6.637E-06     17.97    <-- DIS
     196      22.46081323      22.46066679       6.520E-06     18.07    <-- DIS
     197      22.46074038      22.46059651       6.405E-06     18.16    <-- DIS
     198      22.46066919      22.46052785       6.293E-06     18.25    <-- DIS
     199      22.46059964      22.46046076       6.183E-06     18.34    <-- DIS
     200      22.46053167      22.46039521       6.076E-06     18.44    <-- DIS

     <<< Warning: Maximum number of disentanglement iterations reached >>>
          <<< Disentanglement convergence criteria not satisfied >>>

        Final Omega_I    22.46039521 (Ang^2)

 +----------------------------------------------------------------------------+

 Time to disentangle bands     21.420 (sec)

 done

 
 *------------------------------- WANNIERISE ---------------------------------*
 +--------------------------------------------------------------------+<-- CONV
 | Iter  Delta Spread     RMS Gradient      Spread (Ang^2)      Time  |<-- CONV
 +--------------------------------------------------------------------+<-- CONV
 
 ------------------------------------------------------------------------------
 Initial State
  WF centre and spread    1  (  0.000000, -0.000000, -0.000000 )     1.44864282
  WF centre and spread    2  (  0.000000,  0.000000, -0.000000 )     1.44864282
  WF centre and spread    3  (  0.000000,  0.000000, -0.000000 )     1.41860479
  WF centre and spread    4  ( -0.000000, -0.000000, -0.000000 )     1.41860479
  WF centre and spread    5  ( -0.000000,  0.000000, -0.000000 )     1.44181701
  WF centre and spread    6  (  0.000000, -0.000000, -0.000000 )     1.44181701
  WF centre and spread    7  (  0.000000, -0.000000,  0.000000 )     1.44198328
  WF centre and spread    8  ( -0.000000,  0.000000,  0.000000 )     1.44198328
  WF centre and spread    9  ( -0.000000,  0.000000,  0.000000 )     0.50054072
  WF centre and spread   10  ( -0.000000, -0.000000,  0.000000 )     0.50054072
  WF centre and spread   11  ( -0.000000,  0.000000, -0.000000 )     0.46771706
  WF centre and spread   12  (  0.000000,  0.000000, -0.000000 )     0.46771706
  WF centre and spread   13  (  0.000000, -0.000000, -0.000000 )     0.46771433
  WF centre and spread   14  ( -0.000000, -0.000000, -0.000000 )     0.46771433
  WF centre and spread   15  (  0.000000,  0.000000, -0.000000 )     0.49609320
  WF centre and spread   16  ( -0.000000, -0.000000,  0.000000 )     0.49609320
  WF centre and spread   17  ( -0.000000, -0.000000, -0.000000 )     0.48817654
  WF centre and spread   18  (  0.000000,  0.000000, -0.000000 )     0.48817654
  WF centre and spread   19  (  1.364072,  1.364072,  1.889492 )     1.74773660
  WF centre and spread   20  (  1.364072,  1.364072,  1.889492 )     1.74773660
  WF centre and spread   21  (  1.364072,  1.364071,  1.889492 )     1.74520001
  WF centre and spread   22  (  1.364072,  1.364072,  1.889492 )     1.74520001
  WF centre and spread   23  (  1.364072,  1.364072,  1.889492 )     1.69678914
  WF centre and spread   24  (  1.364072,  1.364072,  1.889492 )     1.69678914
  WF centre and spread   25  (  1.364072,  1.364072,  1.889492 )     1.69658098
  WF centre and spread   26  (  1.364072,  1.364072,  1.889492 )     1.69658098
  WF centre and spread   27  (  1.364072,  1.364072,  1.889492 )     0.86497428
  WF centre and spread   28  (  1.364072,  1.364072,  1.889492 )     0.86497428
  WF centre and spread   29  (  1.364072,  1.364072,  1.889492 )     0.85828353
  WF centre and spread   30  (  1.364072,  1.364072,  1.889492 )     0.85828353
  WF centre and spread   31  (  1.364072,  1.364072,  1.889492 )     0.85828744
  WF centre and spread   32  (  1.364072,  1.364072,  1.889492 )     0.85828744
  WF centre and spread   33  (  1.364072,  1.364072,  1.889492 )     0.82842385
  WF centre and spread   34  (  1.364072,  1.364072,  1.889492 )     0.82842385
  WF centre and spread   35  (  1.364072,  1.364072,  1.889492 )     0.87500488
  WF centre and spread   36  (  1.364072,  1.364072,  1.889492 )     0.87500488
  Sum of centres and spreads ( 24.553287, 24.553287, 34.010856 )    38.68514095
 
      0     0.387E+02     0.0000000000       38.6851409347      20.00  <-- CONV
        O_D=      0.0003364 O_OD=     16.2244094 O_TOT=     38.6851409 <-- SPRD
 ------------------------------------------------------------------------------
 Final State
  WF centre and spread    1  (  0.000000, -0.000000, -0.000000 )     1.44864282
  WF centre and spread    2  (  0.000000,  0.000000, -0.000000 )     1.44864282
  WF centre and spread    3  (  0.000000,  0.000000, -0.000000 )     1.41860479
  WF centre and spread    4  ( -0.000000, -0.000000, -0.000000 )     1.41860479
  WF centre and spread    5  ( -0.000000,  0.000000, -0.000000 )     1.44181701
  WF centre and spread    6  (  0.000000, -0.000000, -0.000000 )     1.44181701
  WF centre and spread    7  (  0.000000, -0.000000,  0.000000 )     1.44198328
  WF centre and spread    8  ( -0.000000,  0.000000,  0.000000 )     1.44198328
  WF centre and spread    9  ( -0.000000,  0.000000,  0.000000 )     0.50054072
  WF centre and spread   10  ( -0.000000, -0.000000,  0.000000 )     0.50054072
  WF centre and spread   11  ( -0.000000,  0.000000, -0.000000 )     0.46771706
  WF centre and spread   12  (  0.000000,  0.000000, -0.000000 )     0.46771706
  WF centre and spread   13  (  0.000000, -0.000000, -0.000000 )     0.46771433
  WF centre and spread   14  ( -0.000000, -0.000000, -0.000000 )     0.46771433
  WF centre and spread   15  (  0.000000,  0.000000, -0.000000 )     0.49609320
  WF centre and spread   16  ( -0.000000, -0.000000,  0.000000 )     0.49609320
  WF centre and spread   17  ( -0.000000, -0.000000, -0.000000 )     0.48817654
  WF centre and spread   18  (  0.000000,  0.000000, -0.000000 )     0.48817654
  WF centre and spread   19  (  1.364072,  1.364072,  1.889492 )     1.74773660
  WF centre and spread   20  (  1.364072,  1.364072,  1.889492 )     1.74773660
  WF centre and spread   21  (  1.364072,  1.364071,  1.889492 )     1.74520001
  WF centre and spread   22  (  1.364072,  1.364072,  1.889492 )     1.74520001
  WF centre and spread   23  (  1.364072,  1.364072,  1.889492 )     1.69678914
  WF centre and spread   24  (  1.364072,  1.364072,  1.889492 )     1.69678914
  WF centre and spread   25  (  1.364072,  1.364072,  1.889492 )     1.69658098
  WF centre and spread   26  (  1.364072,  1.364072,  1.889492 )     1.69658098
  WF centre and spread   27  (  1.364072,  1.364072,  1.889492 )     0.86497428
  WF centre and spread   28  (  1.364072,  1.364072,  1.889492 )     0.86497428
  WF centre and spread   29  (  1.364072,  1.364072,  1.889492 )     0.85828353
  WF centre and spread   30  (  1.364072,  1.364072,  1.889492 )     0.85828353
  WF centre and spread   31  (  1.364072,  1.364072,  1.889492 )     0.85828744
  WF centre and spread   32  (  1.364072,  1.364072,  1.889492 )     0.85828744
  WF centre and spread   33  (  1.364072,  1.364072,  1.889492 )     0.82842385
  WF centre and spread   34  (  1.364072,  1.364072,  1.889492 )     0.82842385
  WF centre and spread   35  (  1.364072,  1.364072,  1.889492 )     0.87500488
  WF centre and spread   36  (  1.364072,  1.364072,  1.889492 )     0.87500488
  Sum of centres and spreads ( 24.553287, 24.553287, 34.010856 )    38.68514095
 
         Spreads (Ang^2)       Omega I      =    22.460395207
        ================       Omega D      =     0.000336368
                               Omega OD     =    16.224409360
    Final Spread (Ang^2)       Omega Total  =    38.685140935
 ------------------------------------------------------------------------------
 Time for wannierise            0.115 (sec)

 done

 *---------------------------------------------------------------------------*
 |                               PLOTTING                                    |
 *---------------------------------------------------------------------------*
 
 
 Calculating interpolated band-structure
 
 Time to calculate interpolated band structure      35.138 (sec)
 
 Time for plotting            112.329 (sec)
 Total Execution Time         149.240 (sec)

 *===========================================================================*
 |                             TIMING INFORMATION                            |
 *===========================================================================*
 |    Tag                                                Ncalls      Time (s)|
 |---------------------------------------------------------------------------|
 |kmesh: get                                        :         1         0.214|
 |overlap: allocate                                 :         1         0.005|
 |overlap: read                                     :         1        14.909|
 |dis: main                                         :         1        21.420|
 |wann: main                                        :         1         0.115|
 |plot: main                                        :         1       112.329|
 *---------------------------------------------------------------------------*
 
 All done: wannier90 exiting
